[Molden Format]
made by pyscf v[2.2.1]
[Atoms] (AU)
Cr   1   24     1.56143912275337    -2.46507591990239    -1.82404491365355
Cr   2   24    -1.56139565905251     2.46513072196000     1.82399011159594
O   3   8     0.00002078698737     0.00002834589187    -0.00002645616574
N   4   7     5.12832174930954    -1.10581670549011    -0.60767356069801
H   5   1     6.65216855026694    -1.66292686427314    -1.66487895135981
H   6   1     5.63710405218294    -1.59213394419468     1.18765885421890
H   7   1     5.20084187906585     0.81566059741989    -0.65509245834172
N   8   7     1.71230729763415    -0.02251608677419    -4.99594076510539
H   9   1     0.29795878723855     1.27247165241550    -4.90823668593820
H   10   1     1.50271021425414    -0.85583806455427    -6.73026148236459
H   11   1     3.34039895052705     0.99863710888315    -5.18656310846864
N   12   7     1.41057094787259    -4.90763575303059     1.34785282752440
H   13   1     1.64193389675534    -6.79355407945465     0.97314659318890
H   14   1    -0.29048681014202    -4.81040367474334     2.24006056107205
H   15   1     2.72468082571676    -4.56691435331926     2.71738081369757
N   16   7    -2.00544350380280    -3.82433513431467    -3.04041437688297
H   17   1    -2.87205678671934    -5.05516478184926    -1.83221042023780
H   18   1    -2.03637832046193    -4.76397121413665    -4.73247136936628
H   19   1    -3.24475802163669    -2.37551046050250    -3.28123540501917
N   20   7     3.37923471211299    -5.33493873459111    -3.94755661599306
H   21   1     4.17102617885350    -4.76109883042731    -5.61685374703210
H   22   1     2.26176595533881    -6.82326057413281    -4.47610923358166
H   23   1     4.85383336053810    -6.19899521806112    -3.03922195969837
N   24   7    -5.12827828560868     1.10587339727385     0.60762064836653
H   25   1    -5.15408816501799    -0.81544705836782     0.54662784797006
H   26   1    -5.69743166898356     1.68113626520945    -1.14337690194197
H   27   1    -6.63528195761783     1.56841410187914     1.73267665553083
N   28   7    -1.71226383393328     0.02257088883181     4.99588785277390
H   29   1    -1.62991523860311     0.86667375415253     6.73575491620870
H   30   1    -0.22416876152653    -1.19157625647512     4.98456461383551
H   31   1    -3.28782110056328    -1.08746368536834     5.11339858210385
N   32   7     2.00548696750367     3.82438993637228     3.04035957482536
H   33   1     2.05186651577887     4.68410571893416     4.77402266739321
H   34   1     2.83712330958063     5.12208376337235     1.87805706574587
H   35   1     3.26582090902109     2.38241174030942     3.19051154350492
N   36   7    -1.41052748417173     4.90769055508820    -1.34790762958202
H   37   1    -1.75003190025884     6.78104976168840    -0.99229329828299
H   38   1    -2.65834387984003     4.49309409198925    -2.75785496783350
H   39   1     0.32278033988471     4.89894112313146    -2.18344058692784
N   40   7    -3.37919124841212     5.33499353664873     3.94750181393545
H   41   1    -2.26357064378777     6.83195331430581     4.45515784003860
H   42   1    -4.15358022727151     4.76963661305810     5.62761006813313
H   43   1    -4.86681766873998     6.18449345978121     3.04686590187224
[GTO]
1 0
 s    6 1.00
          51528.086349  0.0017695545768669
          7737.2103487   0.013556436258096
           1760.374847   0.067162645785071
          496.87706544    0.23295905918518
          161.46520598    0.47040576982722
          55.466352268    0.35733072606876
 s    3 1.00
          107.54732999   -0.10605255446629
          12.408671897    0.62543981484169
          5.0423628826    0.44878820793655
 s    3 1.00
          8.5461640165   -0.21819012081133
          1.3900441221    0.70422525667731
         0.56066602876    0.42488555412558
 s    1 1.00
        0.071483705972                   1
 s    1 1.00
        0.028250687604                   1
 p    5 1.00
          640.48536096  0.0093555063746755
          150.69711194   0.068993338492216
          47.503755296     0.2634118959318
          16.934120165    0.51034501651775
           6.240968059    0.33195512953954
 p    3 1.00
          3.0885463206    0.32917682676976
          1.1791047769    0.55491385190365
         0.43369774432    0.23818412855984
 p    1 1.00
              0.120675                   1
 d    4 1.00
          27.559479426   0.036950140313562
          7.4687020327    0.18821519783039
          2.4345903574    0.44641244239929
         0.78244754808     0.5681617303244
 d    1 1.00
         0.21995774311                   1
 f    1 1.00
                 1.147                   1

2 0
 s    6 1.00
          51528.086349  0.0017695545768669
          7737.2103487   0.013556436258096
           1760.374847   0.067162645785071
          496.87706544    0.23295905918518
          161.46520598    0.47040576982722
          55.466352268    0.35733072606876
 s    3 1.00
          107.54732999   -0.10605255446629
          12.408671897    0.62543981484169
          5.0423628826    0.44878820793655
 s    3 1.00
          8.5461640165   -0.21819012081133
          1.3900441221    0.70422525667731
         0.56066602876    0.42488555412558
 s    1 1.00
        0.071483705972                   1
 s    1 1.00
        0.028250687604                   1
 p    5 1.00
          640.48536096  0.0093555063746755
          150.69711194   0.068993338492216
          47.503755296     0.2634118959318
          16.934120165    0.51034501651775
           6.240968059    0.33195512953954
 p    3 1.00
          3.0885463206    0.32917682676976
          1.1791047769    0.55491385190365
         0.43369774432    0.23818412855984
 p    1 1.00
              0.120675                   1
 d    4 1.00
          27.559479426   0.036950140313562
          7.4687020327    0.18821519783039
          2.4345903574    0.44641244239929
         0.78244754808     0.5681617303244
 d    1 1.00
         0.21995774311                   1
 f    1 1.00
                 1.147                   1

3 0
 s    5 1.00
          2266.1767785  -0.0053893503921743
          340.87010191   -0.04023472138896
          77.363135167   -0.18008184205526
           21.47964494   -0.46828857657651
          6.6589433124   -0.44692617160187
 s    1 1.00
         0.80975975668                   1
 s    1 1.00
         0.25530772234                   1
 p    3 1.00
          17.721504317   0.062630248763161
           3.863550544    0.33331138482352
          1.0480920883    0.74148638308122
 p    1 1.00
         0.27641544411                   1
 d    1 1.00
                   1.2                   1

4 0
 s    5 1.00
          1712.8415853  -0.0054477995804909
          257.64812677  -0.040627174632423
          58.458245853   -0.18111962250584
          16.198367905   -0.46843975563173
          5.0052600809   -0.44616846289231
 s    1 1.00
         0.58731856571                   1
 s    1 1.00
         0.18764592253                   1
 p    3 1.00
          13.571470233  -0.058848116969522
          2.9257372874   -0.32024624762471
         0.79927750754   -0.75328226520436
 p    1 1.00
         0.21954348034                   1
 d    1 1.00
                     1                   1

5 0
 s    3 1.00
             13.010701   0.033485484812989
             1.9622572    0.23472187088125
            0.44453796    0.81377028525955
 s    1 1.00
            0.12194962                   1
 p    1 1.00
                   0.8                   1

6 0
 s    3 1.00
             13.010701   0.033485484812989
             1.9622572    0.23472187088125
            0.44453796    0.81377028525955
 s    1 1.00
            0.12194962                   1
 p    1 1.00
                   0.8                   1

7 0
 s    3 1.00
             13.010701   0.033485484812989
             1.9622572    0.23472187088125
            0.44453796    0.81377028525955
 s    1 1.00
            0.12194962                   1
 p    1 1.00
                   0.8                   1

8 0
 s    5 1.00
          1712.8415853  -0.0054477995804909
          257.64812677  -0.040627174632423
          58.458245853   -0.18111962250584
          16.198367905   -0.46843975563173
          5.0052600809   -0.44616846289231
 s    1 1.00
         0.58731856571                   1
 s    1 1.00
         0.18764592253                   1
 p    3 1.00
          13.571470233  -0.058848116969522
          2.9257372874   -0.32024624762471
         0.79927750754   -0.75328226520436
 p    1 1.00
         0.21954348034                   1
 d    1 1.00
                     1                   1

9 0
 s    3 1.00
             13.010701   0.033485484812989
             1.9622572    0.23472187088125
            0.44453796    0.81377028525955
 s    1 1.00
            0.12194962                   1
 p    1 1.00
                   0.8                   1

10 0
 s    3 1.00
             13.010701   0.033485484812989
             1.9622572    0.23472187088125
            0.44453796    0.81377028525955
 s    1 1.00
            0.12194962                   1
 p    1 1.00
                   0.8                   1

11 0
 s    3 1.00
             13.010701   0.033485484812989
             1.9622572    0.23472187088125
            0.44453796    0.81377028525955
 s    1 1.00
            0.12194962                   1
 p    1 1.00
                   0.8                   1

12 0
 s    5 1.00
          1712.8415853  -0.0054477995804909
          257.64812677  -0.040627174632423
          58.458245853   -0.18111962250584
          16.198367905   -0.46843975563173
          5.0052600809   -0.44616846289231
 s    1 1.00
         0.58731856571                   1
 s    1 1.00
         0.18764592253                   1
 p    3 1.00
          13.571470233  -0.058848116969522
          2.9257372874   -0.32024624762471
         0.79927750754   -0.75328226520436
 p    1 1.00
         0.21954348034                   1
 d    1 1.00
                     1                   1

13 0
 s    3 1.00
             13.010701   0.033485484812989
             1.9622572    0.23472187088125
            0.44453796    0.81377028525955
 s    1 1.00
            0.12194962                   1
 p    1 1.00
                   0.8                   1

14 0
 s    3 1.00
             13.010701   0.033485484812989
             1.9622572    0.23472187088125
            0.44453796    0.81377028525955
 s    1 1.00
            0.12194962                   1
 p    1 1.00
                   0.8                   1

15 0
 s    3 1.00
             13.010701   0.033485484812989
             1.9622572    0.23472187088125
            0.44453796    0.81377028525955
 s    1 1.00
            0.12194962                   1
 p    1 1.00
                   0.8                   1

16 0
 s    5 1.00
          1712.8415853  -0.0054477995804909
          257.64812677  -0.040627174632423
          58.458245853   -0.18111962250584
          16.198367905   -0.46843975563173
          5.0052600809   -0.44616846289231
 s    1 1.00
         0.58731856571                   1
 s    1 1.00
         0.18764592253                   1
 p    3 1.00
          13.571470233  -0.058848116969522
          2.9257372874   -0.32024624762471
         0.79927750754   -0.75328226520436
 p    1 1.00
         0.21954348034                   1
 d    1 1.00
                     1                   1

17 0
 s    3 1.00
             13.010701   0.033485484812989
             1.9622572    0.23472187088125
            0.44453796    0.81377028525955
 s    1 1.00
            0.12194962                   1
 p    1 1.00
                   0.8                   1

18 0
 s    3 1.00
             13.010701   0.033485484812989
             1.9622572    0.23472187088125
            0.44453796    0.81377028525955
 s    1 1.00
            0.12194962                   1
 p    1 1.00
                   0.8                   1

19 0
 s    3 1.00
             13.010701   0.033485484812989
             1.9622572    0.23472187088125
            0.44453796    0.81377028525955
 s    1 1.00
            0.12194962                   1
 p    1 1.00
                   0.8                   1

20 0
 s    5 1.00
          1712.8415853  -0.0054477995804909
          257.64812677  -0.040627174632423
          58.458245853   -0.18111962250584
          16.198367905   -0.46843975563173
          5.0052600809   -0.44616846289231
 s    1 1.00
         0.58731856571                   1
 s    1 1.00
         0.18764592253                   1
 p    3 1.00
          13.571470233  -0.058848116969522
          2.9257372874   -0.32024624762471
         0.79927750754   -0.75328226520436
 p    1 1.00
         0.21954348034                   1
 d    1 1.00
                     1                   1

21 0
 s    3 1.00
             13.010701   0.033485484812989
             1.9622572    0.23472187088125
            0.44453796    0.81377028525955
 s    1 1.00
            0.12194962                   1
 p    1 1.00
                   0.8                   1

22 0
 s    3 1.00
             13.010701   0.033485484812989
             1.9622572    0.23472187088125
            0.44453796    0.81377028525955
 s    1 1.00
            0.12194962                   1
 p    1 1.00
                   0.8                   1

23 0
 s    3 1.00
             13.010701   0.033485484812989
             1.9622572    0.23472187088125
            0.44453796    0.81377028525955
 s    1 1.00
            0.12194962                   1
 p    1 1.00
                   0.8                   1

24 0
 s    5 1.00
          1712.8415853  -0.0054477995804909
          257.64812677  -0.040627174632423
          58.458245853   -0.18111962250584
          16.198367905   -0.46843975563173
          5.0052600809   -0.44616846289231
 s    1 1.00
         0.58731856571                   1
 s    1 1.00
         0.18764592253                   1
 p    3 1.00
          13.571470233  -0.058848116969522
          2.9257372874   -0.32024624762471
         0.79927750754   -0.75328226520436
 p    1 1.00
         0.21954348034                   1
 d    1 1.00
                     1                   1

25 0
 s    3 1.00
             13.010701   0.033485484812989
             1.9622572    0.23472187088125
            0.44453796    0.81377028525955
 s    1 1.00
            0.12194962                   1
 p    1 1.00
                   0.8                   1

26 0
 s    3 1.00
             13.010701   0.033485484812989
             1.9622572    0.23472187088125
            0.44453796    0.81377028525955
 s    1 1.00
            0.12194962                   1
 p    1 1.00
                   0.8                   1

27 0
 s    3 1.00
             13.010701   0.033485484812989
             1.9622572    0.23472187088125
            0.44453796    0.81377028525955
 s    1 1.00
            0.12194962                   1
 p    1 1.00
                   0.8                   1

28 0
 s    5 1.00
          1712.8415853  -0.0054477995804909
          257.64812677  -0.040627174632423
          58.458245853   -0.18111962250584
          16.198367905   -0.46843975563173
          5.0052600809   -0.44616846289231
 s    1 1.00
         0.58731856571                   1
 s    1 1.00
         0.18764592253                   1
 p    3 1.00
          13.571470233  -0.058848116969522
          2.9257372874   -0.32024624762471
         0.79927750754   -0.75328226520436
 p    1 1.00
         0.21954348034                   1
 d    1 1.00
                     1                   1

29 0
 s    3 1.00
             13.010701   0.033485484812989
             1.9622572    0.23472187088125
            0.44453796    0.81377028525955
 s    1 1.00
            0.12194962                   1
 p    1 1.00
                   0.8                   1

30 0
 s    3 1.00
             13.010701   0.033485484812989
             1.9622572    0.23472187088125
            0.44453796    0.81377028525955
 s    1 1.00
            0.12194962                   1
 p    1 1.00
                   0.8                   1

31 0
 s    3 1.00
             13.010701   0.033485484812989
             1.9622572    0.23472187088125
            0.44453796    0.81377028525955
 s    1 1.00
            0.12194962                   1
 p    1 1.00
                   0.8                   1

32 0
 s    5 1.00
          1712.8415853  -0.0054477995804909
          257.64812677  -0.040627174632423
          58.458245853   -0.18111962250584
          16.198367905   -0.46843975563173
          5.0052600809   -0.44616846289231
 s    1 1.00
         0.58731856571                   1
 s    1 1.00
         0.18764592253                   1
 p    3 1.00
          13.571470233  -0.058848116969522
          2.9257372874   -0.32024624762471
         0.79927750754   -0.75328226520436
 p    1 1.00
         0.21954348034                   1
 d    1 1.00
                     1                   1

33 0
 s    3 1.00
             13.010701   0.033485484812989
             1.9622572    0.23472187088125
            0.44453796    0.81377028525955
 s    1 1.00
            0.12194962                   1
 p    1 1.00
                   0.8                   1

34 0
 s    3 1.00
             13.010701   0.033485484812989
             1.9622572    0.23472187088125
            0.44453796    0.81377028525955
 s    1 1.00
            0.12194962                   1
 p    1 1.00
                   0.8                   1

35 0
 s    3 1.00
             13.010701   0.033485484812989
             1.9622572    0.23472187088125
            0.44453796    0.81377028525955
 s    1 1.00
            0.12194962                   1
 p    1 1.00
                   0.8                   1

36 0
 s    5 1.00
          1712.8415853  -0.0054477995804909
          257.64812677  -0.040627174632423
          58.458245853   -0.18111962250584
          16.198367905   -0.46843975563173
          5.0052600809   -0.44616846289231
 s    1 1.00
         0.58731856571                   1
 s    1 1.00
         0.18764592253                   1
 p    3 1.00
          13.571470233  -0.058848116969522
          2.9257372874   -0.32024624762471
         0.79927750754   -0.75328226520436
 p    1 1.00
         0.21954348034                   1
 d    1 1.00
                     1                   1

37 0
 s    3 1.00
             13.010701   0.033485484812989
             1.9622572    0.23472187088125
            0.44453796    0.81377028525955
 s    1 1.00
            0.12194962                   1
 p    1 1.00
                   0.8                   1

38 0
 s    3 1.00
             13.010701   0.033485484812989
             1.9622572    0.23472187088125
            0.44453796    0.81377028525955
 s    1 1.00
            0.12194962                   1
 p    1 1.00
                   0.8                   1

39 0
 s    3 1.00
             13.010701   0.033485484812989
             1.9622572    0.23472187088125
            0.44453796    0.81377028525955
 s    1 1.00
            0.12194962                   1
 p    1 1.00
                   0.8                   1

40 0
 s    5 1.00
          1712.8415853  -0.0054477995804909
          257.64812677  -0.040627174632423
          58.458245853   -0.18111962250584
          16.198367905   -0.46843975563173
          5.0052600809   -0.44616846289231
 s    1 1.00
         0.58731856571                   1
 s    1 1.00
         0.18764592253                   1
 p    3 1.00
          13.571470233  -0.058848116969522
          2.9257372874   -0.32024624762471
         0.79927750754   -0.75328226520436
 p    1 1.00
         0.21954348034                   1
 d    1 1.00
                     1                   1

41 0
 s    3 1.00
             13.010701   0.033485484812989
             1.9622572    0.23472187088125
            0.44453796    0.81377028525955
 s    1 1.00
            0.12194962                   1
 p    1 1.00
                   0.8                   1

42 0
 s    3 1.00
             13.010701   0.033485484812989
             1.9622572    0.23472187088125
            0.44453796    0.81377028525955
 s    1 1.00
            0.12194962                   1
 p    1 1.00
                   0.8                   1

43 0
 s    3 1.00
             13.010701   0.033485484812989
             1.9622572    0.23472187088125
            0.44453796    0.81377028525955
 s    1 1.00
            0.12194962                   1
 p    1 1.00
                   0.8                   1

[5d]
[7f]
[9g]

[MO]
 Sym= A
 Ene=               0
 Spin= Alpha
 Occup=    1.00000
   1     0.010899207194513
   2    -0.018206511601798
   3      0.20539835802988
   4    -0.048292569281224
   5    0.00076645433916012
   6     0.014186066090074
   7    -0.022397516911644
   8    -0.016555145178023
   9    -0.073740321918487
  10      0.11640735428814
  11     0.086014023556764
  12     0.022397449444256
  13    -0.035079823078784
  14     -0.02557183857592
  15      0.01082344479003
  16     0.058258092707857
  17    -0.092033321860839
  18     0.037191950370423
  19     0.078492248166692
  20    0.0052224884414776
  21     0.028291840524023
  22    -0.044803934391054
  23     0.018148786548449
  24     0.038203992470638
  25    0.0040245762125914
  26    0.0010775142826914
  27    -0.0016977838837619
  28    0.0030077356709659
  29    0.0063558872237498
  30    -0.0045526102532528
  31    -0.00056004149744776
  32     -0.01270126201412
  33     0.033981677981848
  34     -0.21852945874365
  35     0.032892330895533
  36     0.012082103515034
  37     0.034379568968907
  38    -0.054307287167983
  39     -0.04018508095233
  40      -0.1778083422467
  41      0.28080992006883
  42      0.20773958558559
  43    -0.0048164390235388
  44     0.006984661777886
  45    0.0040519651993444
  46    -0.0081004227091913
  47    -0.044468547256294
  48     0.070251798530858
  49    -0.028353373126962
  50    -0.059676381624574
  51    -0.0026897554412664
  52    -0.018016441762416
  53     0.028629231533904
  54    -0.011516600783936
  55    -0.023712975011724
  56    0.00071470862323673
  57    0.00018478704852826
  58    -0.000302714583317
  59    0.00052662824023643
  60    0.0011420637997433
  61    -0.00080616325114413
  62    -8.8199869065245e-05
  63     -0.16509098038988
  64     -0.32576605251781
  65     -0.25795766380564
  66     -0.10804447871201
  67      0.16984547749472
  68      0.12437967734648
  69    -0.094828787927203
  70      0.14921222327355
  71      0.10932893971095
  72    0.00067428097852251
  73    0.0035904425800626
  74    -0.005682673278751
  75    0.0022977062785122
  76    0.0048753851176989
  77     0.013161995041839
  78     0.044673357989311
  79     0.034460076021193
  80     0.037139323512477
  81     0.010510544908912
  82    0.0092033648906963
  83    -0.031693882715724
  84    -0.0080318469552324
  85    -0.0074718050633776
  86    0.00023822917483321
  87    0.00097417777366974
  88    -0.00012650951787046
  89    -0.00094791668822497
  90    0.00090142849580704
  91    -0.0033321996686977
  92    -0.0030627388445839
  93    -0.0015399726492975
  94    -0.00014645559394828
  95    -0.00012044773048784
  96    0.0043849578907229
  97    -0.0008080405990216
  98    -0.0012366427109569
  99    -0.00052544547919271
 100    -0.00084756780131134
 101    0.0065177730987341
 102    0.00038497285416926
 103    -0.00029634887170964
 104    -0.001242705152191
 105    -0.000652713556673
 106     0.013008656599105
 107     0.044179077941308
 108     0.034150647070824
 109    0.0026787056723143
 110     0.021494757454389
 111     -0.03369905831019
 112    -0.0033198405235454
 113    -0.017469494043083
 114     0.029178556481715
 115    -0.0010420642056508
 116    0.00040524020115759
 117    -0.00083935904997825
 118    -0.00021273227085847
 119    -0.00028217681143375
 120    0.0061162999111476
 121    0.0011207741334562
 122    0.00069128319373264
 123    -0.0012292088947477
 124    -0.00013147686545058
 125    -0.0023350276918699
 126    -0.0027864590563821
 127    -0.00015950355325994
 128    -0.00055456143307191
 129    0.0014834357509052
 130    0.0029994241879499
 131    -0.0011817781912049
 132    -0.00036697398658303
 133    -0.0011081555622034
 134    0.0011975105222668
 135      0.01314486441103
 136     0.044624255091631
 137     0.034418579156494
 138    8.3525601935543e-05
 139    -0.027396415065366
 140     0.028682131319052
 141    -0.0008226587771271
 142     0.023622495769271
 143    -0.023796758292448
 144    0.00092990196078011
 145    -0.00024516617393697
 146    -0.0002456608534905
 147    0.0011981365811599
 148    0.00056308191859406
 149    -0.0033491438845471
 150    -0.0030190127390197
 151    -0.00013722173077141
 152     0.001285772962193
 153    -0.00085041113456713
 154    0.0063871704178541
 155    0.00033585636758363
 156    0.00073898458310443
 157    -0.00015670083067668
 158    -0.0012040686318963
 159    0.0044928163588193
 160    -0.0007739078745897
 161    -0.00010193711674827
 162    0.00063921842294739
 163    -0.0014578895887254
 164     0.013072014186136
 165     0.044393453668762
 166     0.034358120749084
 167    -0.033506257743888
 168    -0.016011290956285
 169    -0.014572283466688
 170     0.027952104048146
 171     0.014592171375778
 172     0.012550718356122
 173    -0.00071063986057004
 174    -9.0829362036301e-05
 175    -0.0010849214706956
 176    0.00076228939879999
 177    -0.00037261887944038
 178    0.0038845333645649
 179    -0.00095306450722653
 180    0.0014835908520018
 181    0.00065464833583094
 182    0.00013456627825879
 183    -0.0029627556253603
 184    -0.002989231576692
 185     0.001088088594721
 186    0.00080794067089812
 187    0.00077081825119652
 188    0.0063214571590079
 189    0.00080473888880687
 190    0.0012026483682991
 191    -0.00073368902275477
 192    -0.00024330794993173
 193      0.00108101007927
 194    0.0039590348224094
 195     0.018732493893878
 196    -0.0014046780878711
 197     0.002270196146264
 198    0.0016586284294545
 199    -0.0070937029546231
 200     0.010960332266543
 201    0.0078730716763479
 202    4.1602823227498e-05
 203    0.00019139525442508
 204    -0.00030521695740331
 205    0.00012162744541925
 206    0.00027207270055273
 207    0.0027639298850342
 208    0.00076906270212889
 209    7.1615649845818e-05
 210    -0.00081515877712977
 211    0.00025896022226751
 212    0.0028218891980133
 213    0.00070943506403771
 214    0.00083727367535859
 215    3.8141854139783e-06
 216    -0.00018902109916989
 217    0.0028504171154872
 218    0.00093637814833369
 219    -0.00024313208482731
 220    -0.00021555563453472
 221    -0.00077024771668009
 222    -0.007047422833515
 223      0.02645579196737
 224    -0.0041036739695465
 225     0.062803356929341
 226    -0.021322375003241
 227    -0.011047682406909
 228    -0.039991486334982
 229     0.007827532948692
 230    0.0035130450375868
 231    0.0004499425065085
 232    -0.0014981240999701
 233    0.0003434986423312
 234    0.0018041213334731
 235    -0.00097091784666696
 236    -0.011359536854067
 237    -0.0064742947743115
 238    -0.0020583141160497
 239    -0.00012403308969523
 240    0.00021375736594281
 241     0.017587549470166
 242    -0.00048406439022091
 243    -0.0013488884542783
 244    -0.00020840305251631
 245    0.0029336331859927
 246     0.056423867978771
 247    0.0071360880535782
 248    0.0041265011588398
 249    -0.00075016139376017
 250    -0.0038216353896501
 251    -0.0072581912820862
 252     0.025745512603275
 253    -0.0033036551456621
 254     0.026827417261147
 255    -0.0077404380096045
 256    -0.062152135961615
 257    -0.013826410615579
 258    -0.00093158226384832
 259     0.038320325675507
 260    0.0017791654700652
 261    -0.00023992196467943
 262    0.0013593288294519
 263    -0.00025714186480605
 264    0.0011710959433881
 265     0.054215897959127
 266    0.0070823831356316
 267    -0.0013873863596839
 268    -0.0025216510315351
 269    -0.0047455008486277
 270    -0.015664525847835
 271    -0.0075754867938093
 272    0.00011711926772018
 273    -0.00072731642026703
 274    0.0019962182483048
 275     0.022566449387834
 276    0.00072115192279654
 277     0.002012270325715
 278    0.0022405651713893
 279    0.0019899218243969
 280    -0.007182673457781
 281      0.02596007687605
 282    -0.0032541623297514
 283     -0.01763671735208
 284    -0.053000139080038
 285     -0.03851421854448
 286     0.016286103362045
 287     0.029643393205354
 288     0.022465586227923
 289    0.0017248348818115
 290    -0.00017897618131964
 291    0.0013951505426558
 292    -0.00057547588396329
 293    0.0011120993341937
 294     0.054571142827887
 295    0.0071103773791018
 296    -8.6928464961318e-05
 297    -0.0014106474903658
 298    -0.0053926752687556
 299     0.021666738570982
 300    0.00055314762170077
 301    -0.0007637982787452
 302    -0.00050598749153347
 303    0.0034360102654692
 304     -0.01496833317176
 305    -0.0074971313969348
 306    0.0015129232073727
 307    0.00080604917320657
 308    0.0012410346881408
 309    -0.0069335670115241
 310     0.026784649062535
 311    -0.0042262219574683
 312     0.021669556387868
 313     -0.06206876222377
 314      0.01054010715078
 315    -0.010638755308775
 316     0.037506459644612
 317    -0.012148807781162
 318    -0.00092732056641575
 319    0.00041402923174317
 320    0.00061706680494069
 321    -0.0021894340906352
 322    -0.00080997994791684
 323     0.057819827600181
 324    0.0073931733610764
 325    0.00048585840735703
 326    -0.0055964464213955
 327    -0.0012790048721163
 328     0.012395381087813
 329    -0.0016693180924774
 330    0.00074059319022871
 331    0.0025874832920998
 332    0.0011445830734006
 333    -0.0067738910208081
 334    -0.005632008825528
 335    -0.00052927294990523
 336    0.0019864632094363
 337    -0.00055650505474013
 338     0.040215130822138
 339      0.15976174123668
 340     0.098497457439756
 341    -0.044631813891825
 342     0.070405786813366
 343     0.051973962344955
 344     0.037607805254384