 &FCI NORB=  24,NELEC=24,MS2=0,
  ORBSYM=1,1,1,1,1,1,1,1,1,1,1,1,1,1,1,1,1,1,1,1,1,1,1,1,
  ISYM=1,
 &END
 0.5229206456935168    1    1    1    1
 0.015643357250046    2    1    1    1
 0.006824796959450416    2    1    2    1
 0.3045645569561731    2    2    1    1
 0.009464463071949236    2    2    2    1
 0.5553786568463751    2    2    2    2
 -0.001862045186034014    3    1    1    1
 -0.0007772178519234489    3    1    2    1
 -0.007953501236306205    3    1    2    2
 0.0005050483329800207    3    1    3    1
 -0.001002273308673657    3    2    1    1
 -0.001467980147486613    3    2    2    1
 0.009483690638937945    3    2    2    2
 -0.0007773155187650535    3    2    3    1
 0.006827489732720782    3    2    3    2
 0.1931750238597609    3    3    1    1
 -0.00100649465110407    3    3    2    1
 0.3045898878549069    3    3    2    2
 -0.001862517722860225    3    3    3    1
 0.01565280178612847    3    3    3    2
 0.5229105286070801    3    3    3    3
 -0.00201993577464039    4    1    1    1
 7.744138421737464e-05    4    1    2    1
 0.001445008250570167    4    1    2    2
 -7.860123305612749e-05    4    1    3    1
 0.0002761950958934051    4    1    3    2
 0.0007013725301996773    4    1    3    3
 0.0001747141621536975    4    1    4    1
 0.002294399113539572    4    2    1    1
 0.00060498204384854    4    2    2    1
 0.0002184553974898879    4    2    2    2
 4.403060963801915e-05    4    2    3    1
 -0.0004961765367702084    4    2    3    2
 -0.004503813765484327    4    2    3    3
 -4.489747674561786e-05    4    2    4    1
 0.000357196500125366    4    2    4    2
 0.00304218302660893    4    3    1    1
 0.0005433816412682626    4    3    2    1
 0.002380259618453453    4    3    2    2
 0.000341031891300351    4    3    3    1
 -0.0003336618197544042    4    3    3    2
 0.01563730505960945    4    3    3    3
 7.307066383672594e-05    4    3    4    1
 -0.0004964916490991278    4    3    4    2
 0.006823275478358389    4    3    4    3
 0.1727775191879501    4    4    1    1
 0.00253406344168909    4    4    2    1
 0.2018229810640753    4    4    2    2
 0.001081650237182475    4    4    3    1
 0.00238290588807237    4    4    3    2
 0.3045494530041892    4    4    3    3
 -0.004105050706692949    4    4    4    1
 0.0002204965233945028    4    4    4    2
 0.009466694651314871    4    4    4    3
 0.5553743478665761    4    4    4    4
 -0.001862045186034148    5    1    1    1
 0.0003406790926160005    5    1    2    1
 0.001081413214243127    5    1    2    2
 -0.0001016403254384438    5    1    3    1
 -6.746147721377019e-05    5    1    3    2
 0.0004987501617966974    5    1    3    3
 -7.860123305613226e-05    5    1    4    1
 2.419097119368448e-05    5    1    4    2
 -6.759283052576323e-05    5    1    4    3
 0.00108165023718248    5    1    4    4
 0.0005050483329800209    5    1    5    1
 0.0007004328523257508    5    2    1    1
 7.317074871720315e-05    5    2    2    1
 -0.004107686057471366    5    2    2    2
 8.989422051719704e-05    5    2    3    1
 7.268175870407665e-05    5    2    3    2
 0.000700606819575658    5    2    3    3
 -1.021921422717241e-05    5    2    4    1
 -4.482066319672113e-05    5    2    4    2
 0.0002764164235451239    5    2    4    3
 0.001444859405718412    5    2    4    4
 -7.857565707634978e-05    5    2    5    1
 0.0001749316037222389    5    2    5    2
 0.0005016055461998467    5    3    1    1
 -6.710214032257955e-05    5    3    2    1
 0.001083827201959992    5    3    2    2
 -0.0001015573348501706    5    3    3    1
 0.0003412779649704866    5    3    3    2
 -0.001857725727618402    5    3    3    3
 8.968008867599123e-05    5    3    4    1
 4.419890676652658e-05    5    3    4    2
 -0.0007757197616272702    5    3    4    3
 -0.007942084873550534    5    3    4    4
 -0.0001015573348501682    5    3    5    1
 -7.850669354597661e-05    5    3    5    2
 0.0005040864069385723    5    3    5    3
 0.003042183026608961    5    4    1    1
 0.0004341217215610809    5    4    2    1
 0.002538598471777169    5    4    2    2
 -6.759283052571779e-05    5    4    3    1
 0.0005441483226030772    5    4    3    2
 -0.0009975269036227277    5    4    3    3
 7.307066383672995e-05    5    4    4    1
 0.0006049061751720054    5    4    4    2
 -0.001465353965731654    5    4    4    3
 0.009466694651314344    5    4    4    4
 0.0003410318913003771    5    4    5    1
 7.748559450540308e-05    5    4    5    2
 -0.000775719761627268    5    4    5    3
 0.006823275478358424    5    4    5    4
 0.1931750238597609    5    5    1    1
 0.003044706926290052    5    5    2    1
 0.172820962043412    5    5    2    2
 0.0004987501617967065    5    5    3    1
 0.003046724384661549    5    5    3    2
 0.1931881282611879    5    5    3    3
 0.0007013725301996871    5    5    4    1
 0.002295295025230892    5    5    4    2
 -0.0009975269036227256    5    5    4    3
 0.3045494530041898    5    5    4    4
 -0.00186251772286044    5    5    5    1
 -0.002022511990845862    5    5    5    2
 -0.001857725727618384    5    5    5    3
 0.01563730505960932    5    5    5    4
 0.5229105286070806    5    5    5    5
 0.01564335725004615    6    1    1    1
 -0.0003318843029534314    6    1    2    1
 0.002387572583269821    6    1    2    2
 0.0003406790926160388    6    1    3    1
 0.0005439025443449607    6    1    3    2
 0.003044706926290075    6    1    3    3
 7.74413842173389e-05    6    1    4    1
 4.532501015656385e-05    6    1    4    2
 0.0004341217215610457    6    1    4    3
 0.002534063441689136    6    1    4    4
 -0.0007772178519234191    6    1    5    1
 0.0002763417711542113    6    1    5    2
 -6.7102140322578e-05    6    1    5    3
 0.0005433816412682098    6    1    5    4
 -0.001006494651103956    6    1    5    5
 0.006824796959450337    6    1    6    1
 -0.004494488951719318    6    2    1    1
 -0.0004950502766445157    6    2    2    1
 0.0002240346150705121    6    2    2    2
 4.408604193731539e-05    6    2    3    1
 0.0006053824738723931    6    2    3    2
 0.002297078781733112    6    2    3    3
 5.625564925497591e-05    6    2    4    1
 -7.868743924349591e-05    6    2    4    2
 4.57732856856972e-05    6    2    4    3
 0.001662641873869307    6    2    4    4
 4.408604193731735e-05    6    2    5    1
 -4.481704154986556e-05    6    2    5    2
 2.419188490646575e-05    6    2    5    3
 4.577328568567289e-05    6    2    5    4
 0.002297078781733141    6    2    5    5
 -0.00049505027664452    6    2    6    1
 0.0003570099478740816    6    2    6    2
 0.0007004328523258092    6    3    1    1
 0.0002763417711542249    6    3    2    1
 0.001444400855745251    6    3    2    2
 -7.857565707634502e-05    6    3    3    1
 7.724289228301741e-05    6    3    3    2
 -0.002022511990845798    6    3    3    3
 -1.021921422718231e-05    6    3    4    1
 5.636780066934834e-05    6    3    4    2
 7.748559450537998e-05    6    3    4    3
 0.001444859405718494    6    3    4    4
 8.989422051720151e-05    6    3    5    1
 -1.02025247804062e-05    6    3    5    2
 -7.850669354596612e-05    6    3    5    3
 0.0002764164235451008    6    3    5    4
 0.0007006068195757148    6    3    5    5
 7.317074871720105e-05    6    3    6    1
 -4.481704154986851e-05    6    3    6    2
 0.0001749316037222272    6    3    6    3
 0.002294399113539545    6    4    1    1
 4.53250101565472e-05    6    4    2    1
 0.001660427909675022    6    4    2    2
 2.419097119365744e-05    6    4    3    1
 4.543358778775349e-05    6    4    3    2
 0.002295295025230841    6    4    3    3
 -4.489747674561082e-05    6    4    4    1
 -7.894084396906987e-05    6    4    4    2
 0.0006049061751720487    6    4    4    3
 0.0002204965233945886    6    4    4    4
 4.403060963800936e-05    6    4    5    1
 5.636780066934613e-05    6    4    5    2
 4.419890676651034e-05    6    4    5    3
 -0.0004964916490991279    6    4    5    4
 -0.004503813765484312    6    4    5    5
 0.0006049820438485642    6    4    6    1
 -7.868743924348876e-05    6    4    6    2
 -4.482066319670787e-05    6    4    6    3
 0.0003571965001253631    6    4    6    4
 -0.00100227330867351    6    5    1    1
 0.0005439025443449414    6    5    2    1
 0.002539615700125759    6    5    2    2
 -6.746147721373208e-05    6    5    3    1
 0.0004346426846390989    6    5    3    2
 0.003046724384661594    6    5    3    3
 0.0002761950958933851    6    5    4    1
 4.543358778776015e-05    6    5    4    2
 0.0005441483226030643    6    5    4    3
 0.002382905888072254    6    5    4    4
 -0.0007773155187650409    6    5    5    1
 7.724289228300247e-05    6    5    5    2
 0.0003412779649704927    6    5    5    3
 -0.0003336618197544123    6    5    5    4
 0.01565280178612864    6    5    5    5
 -0.001467980147486613    6    5    6    1
 0.0006053824738724112    6    5    6    2
 7.268175870405487e-05    6    5    6    3
 -0.0004961765367701782    6    5    6    4
 0.006827489732720762    6    5    6    5
 0.3045645569561727    6    6    1    1
 0.002387572583269824    6    6    2    1
 0.2018531333225003    6    6    2    2
 0.001081413214243144    6    6    3    1
 0.002539615700125695    6    6    3    2
 0.1728209620434115    6    6    3    3
 0.00144500825057023    6    6    4    1
 0.001660427909674946    6    6    4    2
 0.002538598471777344    6    6    4    3
 0.201822981064075    6    6    4    4
 -0.007953501236306339    6    6    5    1
 0.001444400855745281    6    6    5    2
 0.001083827201959926    6    6    5    3
 0.002380259618453388    6    6    5    4
 0.3045898878549065    6    6    5    5
 0.009464463071949369    6    6    6    1
 0.0002240346150704504    6    6    6    2
 -0.004107686057471209    6    6    6    3
 0.0002184553974898274    6    6    6    4
 0.009483690638938188    6    6    6    5
 0.5553786568463743    6    6    6    6
 0.002363685447266275    7    1    1    1
 0.0002903344016041299    7    1    2    1
 0.001296259350586252    7    1    2    2
 -6.563313834277895e-05    7    1    3    1
 -1.005302186776015e-05    7    1    3    2
 0.000475799852003636    7    1    3    3
 -1.895697156407934e-05    7    1    4    1
 8.819979030018625e-06    7    1    4    2
 1.208965468787162e-05    7    1    4    3
 0.0001767901271943719    7    1    4    4
 2.878712973262536e-05    7    1    5    1
 -1.142288395294086e-05    7    1    5    2
 -2.274804445271304e-06    7    1    5    3
 2.132452801435884e-05    7    1    5    4
 -0.0001049575072090072    7    1    5    5
 5.114869260965465e-05    7    1    6    1
 -1.478171681456502e-05    7    1    6    2
 1.590136047213978e-05    7    1    6    3
 9.445373388387251e-06    7    1    6    4
 1.209631839612346e-05    7    1    6    5
 -0.0003851784307067027    7    1    6    6
 7.101324072684851e-05    7    1    7    1
 0.0007019380196029117    7    2    1    1
 5.248788582970218e-05    7    2    2    1
 -0.0009263538354622771    7    2    2    2
 2.323309269846066e-05    7    2    3    1
 -7.577929150003741e-05    7    2    3    2
 -0.0005224753406283032    7    2    3    3
 -9.824854988308823e-06    7    2    4    1
 1.459551020226229e-05    7    2    4    2
 -2.760995740924044e-06    7    2    4    3
 -0.0001362179896777338    7    2    4    4
 -1.457518471338608e-05    7    2    5    1
 2.065916995645729e-05    7    2    5    2
 -1.070873461331141e-06    7    2    5    3
 -1.99381096276922e-06    7    2    5    4
 0.0001308637707613004    7    2    5    5
 2.486113253555951e-05    7    2    6    1
 -3.051252602676364e-05    7    2    6    2
 -2.640702137337655e-06    7    2    6    3
 1.379075631780125e-06    7    2    6    4
 -2.467101400084286e-05    7    2    6    5
 0.0005722038867566323    7    2    6    6
 -1.428376037919973e-05    7    2    7    1
 1.567703226200184e-05    7    2    7    2
 -0.0003326315641018574    7    3    1    1
 -1.053893701708032e-05    7    3    2    1
 -0.0001646527396250626    7    3    2    2
 6.759092964655995e-06    7    3    3    1
 -2.272519255257121e-05    7    3    3    2
 0.0004042778877574841    7    3    3    3
 -1.474755789153789e-07    7    3    4    1
 -8.280979596444958e-06    7    3    4    2
 2.454895158419649e-05    7    3    4    3
 0.0001172409148516282    7    3    4    4
 2.931979578242028e-06    7    3    5    1
 4.416021018378394e-07    7    3    5    2
 -5.860429183011124e-06    7    3    5    3
 -1.409757155630069e-05    7    3    5    4
 -5.797609388166154e-05    7    3    5    5
 -1.020783804521023e-05    7    3    6    1
 5.76421553102799e-06    7    3    6    2
 -6.164672642886493e-06    7    3    6    3
 1.479762835216272e-07    7    3    6    4
 3.411426609158069e-06    7    3    6    5
 -0.0002499345756043554    7    3    6    6
 4.028884593415335e-06    7    3    7    1
 -3.533878430807828e-06    7    3    7    2
 2.453383600190706e-06    7    3    7    3
 -0.0001684616353414223    7    4    1    1
 -5.969861330167368e-06    7    4    2    1
 -5.413655514420293e-05    7    4    2    2
 4.201057824828806e-08    7    4    3    1
 -5.987594001894491e-06    7    4    3    2
 5.277796788213861e-05    7    4    3    3
 -5.18594777504944e-06    7    4    4    1
 -5.632327269338713e-06    7    4    4    2
 4.98617055935589e-06    7    4    4    3
 0.0001600298802113001    7    4    4    4
 6.602368215642864e-06    7    4    5    1
 1.472756507231865e-07    7    4    5    2
 -7.02742303258774e-06    7    4    5    3
 -2.712481188789692e-05    7    4    5    4
 -0.0002113026489407292    7    4    5    5
 -5.585227865833896e-06    7    4    6    1
 -1.408947549371834e-07    7    4    6    2
 6.309190128416653e-07    7    4    6    3
 2.64642193772389e-06    7    4    6    4
 -1.946233840435245e-05    7    4    6    5
 -0.0002624133950988838    7    4    6    6
 1.773519619933708e-06    7    4    7    1
 -1.942962924878177e-06    7    4    7    2
 7.478867212347239e-07    7    4    7    3
 1.396573806854289e-06    7    4    7    4
 0.0001287030094962457    7    5    1    1
 -2.156315288779076e-05    7    5    2    1
 -3.863294650946043e-05    7    5    2    2
 2.385411528637488e-06    7    5    3    1
 -1.327630238467781e-05    7    5    3    2
 -0.0001856004699205556    7    5    3    3
 -3.612724328795194e-07    7    5    4    1
 -2.844799886712395e-06    7    5    4    2
 -1.220031308986521e-05    7    5    4    3
 -0.0004133193565095207    7    5    4    4
 -5.72044894343538e-06    7    5    5    1
 2.617021607476612e-06    7    5    5    2
 1.253265177211507e-05    7    5    5    3
 -7.774143807784155e-05    7    5    5    4
 -0.000674881620069131    7    5    5    5
 2.184683026542994e-06    7    5    6    1
 -1.230720653377117e-05    7    5    6    2
 -3.360376741781305e-06    7    5    6    3
 1.65893819791101e-06    7    5    6    4
 -6.704397419550156e-05    7    5    6    5
 8.341210577237595e-06    7    5    6    6
 -7.028143936628278e-06    7    5    7    1
 5.344833613258287e-06    7    5    7    2
 -1.470635846247589e-06    7    5    7    3
 -1.502201181705548e-06    7    5    7    4
 8.914146461702546e-06    7    5    7    5
 -0.0001101907195604423    7    6    1    1
 1.178824281441428e-06    7    6    2    1
 -0.0001231517948757798    7    6    2    2
 1.176456806596751e-06    7    6    3    1
 4.17606812266119e-06    7    6    3    2
 -1.886854723117434e-05    7    6    3    3
 8.908228108308452e-06    7    6    4    1
 6.523973496653062e-08    7    6    4    2
 -4.767553217292321e-06    7    6    4    3
 0.0001149988208368754    7    6    4    4
 -2.577671400174874e-05    7    6    5    1
 -2.340366065002868e-06    7    6    5    2
 8.504155785272745e-06    7    6    5    3
 -2.939124464450785e-05    7    6    5    4
 0.0005529321476822179    7    6    5    5
 -0.0001297004386868006    7    6    6    1
 3.33717480739462e-05    7    6    6    2
 -3.35353439814611e-05    7    6    6    3
 -2.117847081091909e-05    7    6    6    4
 6.382518687780293e-05    7    6    6    5
 0.001702873466004573    7    6    6    6
 -1.016710103517312e-06    7    6    7    1
 -2.810818815638864e-06    7    6    7    2
 2.875834688434224e-07    7    6    7    3
 1.346248323377359e-06    7    6    7    4
 -8.357006677805976e-06    7    6    7    5
 4.095545278039539e-05    7    6    7    6
 0.1193461135380069    7    7    1    1
 -0.0009311040070155623    7    7    2    1
 0.09061763873784086    7    7    2    2
 0.0005168270565968364    7    7    3    1
 -5.011583851169572e-05    7    7    3    2
 0.07837201897581014    7    7    3    3
 -1.11599893204821e-05    7    7    4    1
 0.0004231621406115544    7    7    4    2
 0.0002371250279256279    7    7    4    3
 0.08312906745713622    7    7    4    4
 -0.0009935707889030193    7    7    5    1
 0.0002039277746134571    7    7    5    2
 0.0003800679147367454    7    7    5    3
 -0.0003123858047773757    7    7    5    4
 0.1032419622529536    7    7    5    5
 0.0003438242569508377    7    7    6    1
 -0.0004872610420055873    7    7    6    2
 -0.000291192530523463    7    7    6    3
 6.539977493605993e-05    7    7    6    4
 -0.0007262726744469856    7    7    6    5
 0.1328086738411363    7    7    6    6
 0.0006223681165760425    7    7    7    1
 -0.0007357119265691164    7    7    7    2
 0.0002839444247678431    7    7    7    3
 0.0002090452902646145    7    7    7    4
 -0.0005988389966344405    7    7    7    5
 0.0009976608242744855    7    7    7    6
 0.5229218047586269    7    7    7    7
 -0.003259854878200625    8    1    1    1
 -0.0004653896235850193    8    1    2    1
 -0.001994245614115131    8    1    2    2
 0.0001202370245201041    8    1    3    1
 5.62103812921251e-05    8    1    3    2
 -0.0005059944974418161    8    1    3    3
 4.460981622449705e-05    8    1    4    1
 -1.028184612030641e-05    8    1    4    2
 -1.481634157634464e-06    8    1    4    3
 0.0001802060262272309    8    1    4    4
 -0.0001065534057815387    8    1    5    1
 2.65897836425476e-05    8    1    5    2
 8.762212399006129e-06    8    1    5    3
 -3.091972915431182e-05    8    1    5    4
 0.0009876590109943652    8    1    5    5
 0.0001127998061550299    8    1    6    1
 3.567747223160133e-05    8    1    6    2
 -3.746884411910794e-05    8    1    6    3
 -1.706975081131282e-05    8    1    6    4
 1.775056457992546e-05    8    1    6    5
 0.002206509847411601    8    1    6    6
 -9.000943307862189e-05    8    1    7    1
 1.299362049982962e-05    8    1    7    2
 -2.411395902551423e-06    8    1    7    3
 -1.754646798214548e-06    8    1    7    4
 9.707545587080273e-06    8    1    7    5
 -1.030683637294388e-05    8    1    7    6
 -0.002044874870687871    8    1    7    7
 0.0003142669415868786    8    1    8    1
 -0.001302178347294248    8    2    1    1
 -0.0001075332222566103    8    2    2    1
 0.000993117246221735    8    2    2    2
 -2.407887777828606e-05    8    2    3    1
 0.0001573113086602105    8    2    3    2
 0.0008442154438718293    8    2    3    3
 1.643236236015614e-05    8    2    4    1
 -2.8658937371633e-05    8    2    4    2
 1.173135575980631e-05    8    2    4    3
 0.0002660056132610968    8    2    4    4
 2.034218065745281e-05    8    2    5    1
 -2.39680865805668e-05    8    2    5    2
 9.481698910254159e-07    8    2    5    3
 6.518894110718378e-06    8    2    5    4
 -0.0001409608388950751    8    2    5    5
 -2.776552759322585e-05    8    2    6    1
 5.854418866833069e-05    8    2    6    2
 5.585343235211348e-07    8    2    6    3
 -5.79637195937461e-07    8    2    6    4
 4.092631557205644e-05    8    2    6    5
 -0.0008620768733175011    8    2    6    6
 7.050658440825238e-06    8    2    7    1
 -1.585296205664842e-05    8    2    7    2
 2.923402467624606e-06    8    2    7    3
 4.274174195907433e-07    8    2    7    4
 -4.142207463845762e-06    8    2    7    5
 8.820086107260254e-06    8    2    7    6
 0.001339716430048075    8    2    7    7
 -0.0001073385347238783    8    2    8    1
 8.911317496202849e-05    8    2    8    2
 0.0006177281393955508    8    3    1    1
 3.579692187451483e-05    8    3    2    1
 0.0004416674102910485    8    3    2    2
 -1.816232662500565e-05    8    3    3    1
 5.035232481785403e-05    8    3    3    2
 -0.0007219573898592669    8    3    3    3
 4.382135381439331e-07    8    3    4    1
 1.695867508383107e-05    8    3    4    2
 -3.518595120650872e-05    8    3    4    3
 -9.358637339628134e-05    8    3    4    4
 -8.221040617968395e-07    8    3    5    1
 -1.07521886051929e-06    8    3    5    2
 6.339673863112051e-06    8    3    5    3
 4.026703227035333e-05    8    3    5    4
 0.000107831110596832    8    3    5    5
 1.948435620263933e-05    8    3    6    1
 -1.027647618383873e-05    8    3    6    2
 1.65352918518697e-05    8    3    6    3
 -5.898925304296984e-08    8    3    6    4
 -3.227600746900062e-06    8    3    6    5
 0.0003705113432534318    8    3    6    6
 6.795417602799199e-07    8    3    7    1
 1.979643287122874e-06    8    3    7    2
 -3.137252133960516e-06    8    3    7    3
 -4.502613620393106e-07    8    3    7    4
 9.385141499562068e-07    8    3    7    5
 -4.139922707093199e-06    8    3    7    6
 -0.0005352786398183753    8    3    7    7
 3.824518893776827e-05    8    3    8    1
 -2.903232868618393e-05    8    3    8    2
 1.649035073133832e-05    8    3    8    3
 0.0003706124115461534    8    4    1    1
 1.950190765367664e-05    8    4    2    1
 0.0001530745851646797    8    4    2    2
 -1.421792834911705e-06    8    4    3    1
 2.023642657220613e-05    8    4    3    2
 -5.940947420451488e-05    8    4    3    3
 1.827337799259595e-05    8    4    4    1
 9.842490857679723e-06    8    4    4    2
 1.413427599759089e-05    8    4    4    3
 -0.000541988343480237    8    4    4    4
 -1.704847946833414e-05    8    4    5    1
 -2.323658263913254e-06    8    4    5    2
 2.413092167054724e-05    8    4    5    3
 4.137848521162612e-05    8    4    5    4
 0.0005961803847796996    8    4    5    5
 1.071117359305246e-05    8    4    6    1
 4.714165372786841e-06    8    4    6    2
 -1.841340502804679e-06    8    4    6    3
 -5.54662368408297e-06    8    4    6    4
 7.141009668278502e-05    8    4    6    5
 0.0006321910900936903    8    4    6    6
 4.006031226198656e-07    8    4    7    1
 1.013701413624021e-06    8    4    7    2
 -8.181207630811529e-07    8    4    7    3
 -1.791973767121672e-06    8    4    7    4
 -8.845781346433584e-07    8    4    7    5
 2.740379048081362e-06    8    4    7    6
 -0.0003953498205502147    8    4    7    7
 1.744685291661756e-05    8    4    8    1
 -1.222041816880431e-05    8    4    8    2
 4.689107557639064e-06    8    4    8    3
 9.635736913394857e-06    8    4    8    4
 0.00010880603018792    8    5    1    1
 5.168710647390323e-05    8    5    2    1
 0.0003524991448331386    8    5    2    2
 -1.924841374662162e-06    8    5    3    1
 4.451048765046145e-05    8    5    3    2
 0.0005785853008584406    8    5    3    3
 5.920322236200483e-06    8    5    4    1
 7.759539965200843e-06    8    5    4    2
 5.624145290623458e-05    8    5    4    3
 0.0009887885254228051    8    5    4    4
 -1.95740613957026e-05    8    5    5    1
 8.076579909449125e-06    8    5    5    2
 -2.987050960793082e-05    8    5    5    3
 0.000222919588436997    8    5    5    4
 0.001661049483508456    8    5    5    5
 1.588528331217934e-05    8    5    6    1
 2.858050689821662e-05    8    5    6    2
 -1.04950976154077e-06    8    5    6    3
 9.978162821786596e-06    8    5    6    4
 0.0002690007907490953    8    5    6    5
 0.0009243138244257137    8    5    6    6
 8.180053321319504e-06    8    5    7    1
 -4.670201167701298e-06    8    5    7    2
 1.425590095353653e-06    8    5    7    3
 -2.059367505606876e-06    8    5    7    4
 -1.002452317697263e-05    8    5    7    5
 7.348412665886185e-07    8    5    7    6
 0.0008154236211190587    8    5    7    7
 -3.858811088990959e-05    8    5    8    1
 3.675211160775761e-05    8    5    8    2
 -9.507100157135175e-06    8    5    8    3
 -7.241872788969544e-06    8    5    8    4
 7.598201518609929e-05    8    5    8    5
 0.00209290720929948    8    6    1    1
 8.979666172821742e-05    8    6    2    1
 0.001437403089615992    8    6    2    2
 -1.084542930460295e-05    8    6    3    1
 1.596418221384961e-05    8    6    3    2
 0.0008340995224968998    8    6    3    3
 -2.384192552010274e-05    8    6    4    1
 1.431072364629339e-05    8    6    4    2
 5.319618193697318e-05    8    6    4    3
 0.0005044878453322839    8    6    4    4
 3.850349279880959e-05    8    6    5    1
 1.582222636400557e-05    8    6    5    2
 -3.634256593548689e-05    8    6    5    3
 0.0001956096266507621    8    6    5    4
 -0.0003977730522920722    8    6    5    5
 0.0005823182343737472    8    6    6    1
 -7.516676523517783e-05    8    6    6    2
 5.543613031499964e-05    8    6    6    3
 8.633410235346814e-05    8    6    6    4
 4.911994187137782e-05    8    6    6    5
 -0.00162364604567401    8    6    6    6
 3.549890409214667e-06    8    6    7    1
 6.077050795066885e-06    8    6    7    2
 -4.762278488286932e-06    8    6    7    3
 5.275202167968513e-06    8    6    7    4
 -1.328761136292897e-05    8    6    7    5
 -3.331270193091658e-05    8    6    7    6
 -0.0006474177501668546    8    6    7    7
 -6.195314197056708e-05    8    6    8    1
 -2.439176069983906e-05    8    6    8    2
 6.239210529692802e-06    8    6    8    3
 6.261928277459357e-06    8    6    8    4
 -5.757390635120218e-05    8    6    8    5
 0.000480736382769558    8    6    8    6
 -0.002209523212233205    8    7    1    1
 6.571982361663454e-05    8    7    2    1
 -0.0009540654981485628    8    7    2    2
 -2.224686925009433e-05    8    7    3    1
 1.257240972265043e-05    8    7    3    2
 -0.000473154514026314    8    7    3    3
 1.483643954382798e-05    8    7    4    1
 -9.216759033251946e-06    8    7    4    2
 -1.623489822946477e-05    8    7    4    3
 -0.0003056874588566179    8    7    4    4
 3.718782249583879e-05    8    7    5    1
 -1.551053845706872e-05    8    7    5    2
 3.062555593344372e-06    8    7    5    3
 -2.566533750566168e-05    8    7    5    4
 -0.0002840753105277802    8    7    5    5
 -0.0001671710355535795    8    7    6    1
 5.335661087965432e-05    8    7    6    2
 -1.730821247234076e-06    8    7    6    3
 -2.516467230657808e-05    8    7    6    4
 5.608394078966005e-05    8    7    6    5
 -0.00143118504997674    8    7    6    6
 -8.938952786905179e-05    8    7    7    1
 2.797967584763653e-05    8    7    7    2
 -9.401735640908314e-06    8    7    7    3
 -2.179475825969447e-05    8    7    7    4
 1.121088331185814e-05    8    7    7    5
 0.0001236873593348995    8    7    7    6
 0.01436655277145866    8    7    7    7
 -0.0004711675558936674    8    7    8    1
 0.0002991656111895751    8    7    8    2
 -0.0001043060944511507    8    7    8    3
 -7.357701385096343e-05    8    7    8    4
 0.0001902360035042349    8    7    8    5
 -0.0001749260022231762    8    7    8    6
 0.006830909344445942    8    7    8    7
 0.1738261661954546    8    8    1    1
 -0.002198364561685629    8    8    2    1
 0.1201944147326846    8    8    2    2
 0.001052269548730056    8    8    3    1
 -0.0001982762928624594    8    8    3    2
 0.09902352619487068    8    8    3    3
 -9.635582471016735e-05    8    8    4    1
 0.0006641703322615441    8    8    4    2
 0.0005098994534171329    8    8    4    3
 0.1042419254068175    8    8    4    4
 -0.001965402417031219    8    8    5    1
 0.0005191619620591923    8    8    5    2
 0.0005349117759822309    8    8    5    3
 -0.0003097434995084462    8    8    5    4
 0.133735374211174    8    8    5    5
 0.001854255746925923    8    8    6    1
 -0.00119403457512076    8    8    6    2
 -0.000554698715026257    8    8    6    3
 0.0003856499851187877    8    8    6    4
 -0.002017545493154535    8    8    6    5
 0.1942432034340455    8    8    6    6
 -0.001366569579270718    8    8    7    1
 0.0006975245271734587    8    8    7    2
 -0.0002045058264343781    8    8    7    3
 -0.0001689692835925235    8    8    7    4
 0.0004037882386115971    8    8    7    5
 0.0001219897644849642    8    8    7    6
 0.2993160475539117    8    8    7    7
 -0.003672692709329042    8    8    8    1
 0.0028112914899603    8    8    8    2
 -0.001199145862073185    8    8    8    3
 -0.000627513661185758    8    8    8    4
 0.001480876267444491    8    8    8    5
 -0.001430251906578208    8    8    8    6
 0.0145434416910166    8    8    8    7
 0.5237507444008344    8    8    8    8
 -0.001912767544993017    9    1    1    1
 -0.0002551006586853406    9    1    2    1
 -0.001068231484206791    9    1    2    2
 -1.02979557996748e-05    9    1    3    1
 -0.0002103688403400568    9    1    3    2
 -0.001610640098149401    9    1    3    3
 -8.650615278703595e-05    9    1    4    1
 -1.835562683439552e-05    9    1    4    2
 -0.0001049833814963911    9    1    4    3
 -0.0022744486940997    9    1    4    4
 0.0002066540788736454    9    1    5    1
 -3.137079630426392e-05    9    1    5    2
 -2.2095526399285e-05    9    1    5    3
 -5.180677869779297e-05    9    1    5    4
 -0.003635545416104726    9    1    5    5
 -0.0006904330413663125    9    1    6    1
 -0.000107336126976603    9    1    6    2
 5.201850640358985e-05    9    1    6    3
 1.220729922361567e-05    9    1    6    4
 -0.0002963739227957563    9    1    6    5
 -0.007066797584847608    9    1    6    6
 -2.808744875189548e-05    9    1    7    1
 7.565672658505066e-06    9    1    7    2
 -6.145505515186576e-07    9    1    7    3
 3.770246411173809e-06    9    1    7    4
 1.09113562143282e-05    9    1    7    5
 -5.94138874687981e-05    9    1    7    6
 0.001417729852065867    9    1    7    7
 -5.004500788533439e-05    9    1    8    1