[Molden Format]
made by pyscf v[2.2.1]
[Atoms] (AU)
Fe   1   26    10.35569916261654     2.17318504324982   -15.17450078025744
S   2   16     7.65339080448850    -1.15273293598469   -16.53510358994429
S   3   16    14.15404867299231     0.79368497231733   -17.08312416606816
Fe   4   26    11.41394579237297    -2.30546587196938   -18.19806257956155
S   5   16    10.33680190137089     2.36215765570633   -10.54467177507304
S   6   16     8.74943195673624     6.19830168857340   -16.57289811243559
S   7   16    10.86592521624911    -2.83458918684759   -22.77119980100900
S   8   16    12.96352121451632    -6.44396608476686   -16.74297346364645
C   9   6    10.41239094635349     8.40928125431453   -14.19184319548361
H   10   1    12.26432254842725     9.12737718164925   -14.96663090655529
H   11   1     9.20296622663185    10.07224024393178   -13.70051440309670
H   12   1    10.80923343251215     7.25654831832984   -12.45329516088376
C   13   6     6.80301404843422     3.21253441176060   -10.46908273009044
H   14   1     5.68807563494084     1.51178089965205   -10.99820604496866
H   15   1     6.19830168857340     3.89283581660403    -8.54156208303408
H   16   1     6.46286334601251     4.68652078892135   -11.92417184600554
C   17   6     9.84547310898397    -7.97464424566456   -17.87680913838549
H   18   1     9.63760323528181    -7.57780175950590   -19.93661061416140
H   19   1     9.84547310898397   -10.05334298268613   -17.49886391347247
H   20   1     8.25810316434932    -7.02978118338203   -16.87525429236600
C   21   6    14.41861033043142    -3.49599333044536   -23.13024776467636
H   22   1    14.92883638406399    -3.89283581660403   -25.15225471796098
H   23   1    15.49575422143351    -1.81413707958246   -22.41215183734163
H   24   1    14.90993912281834    -5.14005505881697   -21.90192578370907
[GTO]
1 0
 s    6 1.00
          60923.640643  0.0017552243692958
          9147.8893982   0.013449023284001
          2081.3505927   0.066678874640978
          587.55977067    0.23176348548844
           191.0904399    0.46945550248188
          65.732730112     0.3596824938678
 s    3 1.00
          127.25891928   -0.10723431835929
           14.83091301    0.62971616328466
          6.0653307408    0.44472317896179
 s    3 1.00
           10.44994371   -0.21694289195548
          1.7245228003    0.69457867408393
         0.71772177325    0.43298308896347
 s    1 1.00
        0.091449828308                   1
 s    1 1.00
        0.033706691021                   1
 p    5 1.00
          773.43750995  0.0091440529992506
          182.15149714   0.067887577136571
          57.547272758    0.26167978878504
          20.614988935    0.51088040113251
           7.634855789    0.33235475570224
 p    3 1.00
           3.871932799    0.33193859098144
          1.4924724132     0.5553666555499
         0.56061284958    0.23106034201617
 p    1 1.00
              0.134915                   1
 d    4 1.00
          38.968133419   0.033335938558743
          10.800067078    0.17766212505983
          3.6136457999      0.441281781625
          1.2129967888    0.57089200490673
 d    1 1.00
          0.3652439317                   1
 f    1 1.00
                 1.598                   1

2 0
 s    5 1.00
           9184.930301  -0.0054729466134731
          1381.5105503  -0.040954402155135
           313.8714758   -0.18475828956188
          88.053870623   -0.47567280643953
          27.039914905   -0.43495153584169
 s    3 1.00
          45.648731303  -0.091904045808942
          4.9664522326    0.55698777214497
          2.0116242047     0.5111546829846
 s    1 1.00
         0.35661077013                   1
 s    1 1.00
         0.13507221477                   1
 p    5 1.00
          261.98233439  -0.009183054659266
          61.306894736   -0.06590222652599
          19.103729887   -0.24587784518735
          6.6567720378    -0.4823147107602
          2.3959635161   -0.38956314351423
 p    1 1.00
         0.61776161679                   1
 p    1 1.00
         0.16993376871                   1
 d    1 1.00
                  0.55                   1

3 0
 s    5 1.00
           9184.930301  -0.0054729466134731
          1381.5105503  -0.040954402155135
           313.8714758   -0.18475828956188
          88.053870623   -0.47567280643953
          27.039914905   -0.43495153584169
 s    3 1.00
          45.648731303  -0.091904045808942
          4.9664522326    0.55698777214497
          2.0116242047     0.5111546829846
 s    1 1.00
         0.35661077013                   1
 s    1 1.00
         0.13507221477                   1
 p    5 1.00
          261.98233439  -0.009183054659266
          61.306894736   -0.06590222652599
          19.103729887   -0.24587784518735
          6.6567720378    -0.4823147107602
          2.3959635161   -0.38956314351423
 p    1 1.00
         0.61776161679                   1
 p    1 1.00
         0.16993376871                   1
 d    1 1.00
                  0.55                   1

4 0
 s    6 1.00
          60923.640643  0.0017552243692958
          9147.8893982   0.013449023284001
          2081.3505927   0.066678874640978
          587.55977067    0.23176348548844
           191.0904399    0.46945550248188
          65.732730112     0.3596824938678
 s    3 1.00
          127.25891928   -0.10723431835929
           14.83091301    0.62971616328466
          6.0653307408    0.44472317896179
 s    3 1.00
           10.44994371   -0.21694289195548
          1.7245228003    0.69457867408393
         0.71772177325    0.43298308896347
 s    1 1.00
        0.091449828308                   1
 s    1 1.00
        0.033706691021                   1
 p    5 1.00
          773.43750995  0.0091440529992506
          182.15149714   0.067887577136571
          57.547272758    0.26167978878504
          20.614988935    0.51088040113251
           7.634855789    0.33235475570224
 p    3 1.00
           3.871932799    0.33193859098144
          1.4924724132     0.5553666555499
         0.56061284958    0.23106034201617
 p    1 1.00
              0.134915                   1
 d    4 1.00
          38.968133419   0.033335938558743
          10.800067078    0.17766212505983
          3.6136457999      0.441281781625
          1.2129967888    0.57089200490673
 d    1 1.00
          0.3652439317                   1
 f    1 1.00
                 1.598                   1

5 0
 s    5 1.00
           9184.930301  -0.0054729466134731
          1381.5105503  -0.040954402155135
           313.8714758   -0.18475828956188
          88.053870623   -0.47567280643953
          27.039914905   -0.43495153584169
 s    3 1.00
          45.648731303  -0.091904045808942
          4.9664522326    0.55698777214497
          2.0116242047     0.5111546829846
 s    1 1.00
         0.35661077013                   1
 s    1 1.00
         0.13507221477                   1
 p    5 1.00
          261.98233439  -0.009183054659266
          61.306894736   -0.06590222652599
          19.103729887   -0.24587784518735
          6.6567720378    -0.4823147107602
          2.3959635161   -0.38956314351423
 p    1 1.00
         0.61776161679                   1
 p    1 1.00
         0.16993376871                   1
 d    1 1.00
                  0.55                   1

6 0
 s    5 1.00
           9184.930301  -0.0054729466134731
          1381.5105503  -0.040954402155135
           313.8714758   -0.18475828956188
          88.053870623   -0.47567280643953
          27.039914905   -0.43495153584169
 s    3 1.00
          45.648731303  -0.091904045808942
          4.9664522326    0.55698777214497
          2.0116242047     0.5111546829846
 s    1 1.00
         0.35661077013                   1
 s    1 1.00
         0.13507221477                   1
 p    5 1.00
          261.98233439  -0.009183054659266
          61.306894736   -0.06590222652599
          19.103729887   -0.24587784518735
          6.6567720378    -0.4823147107602
          2.3959635161   -0.38956314351423
 p    1 1.00
         0.61776161679                   1
 p    1 1.00
         0.16993376871                   1
 d    1 1.00
                  0.55                   1

7 0
 s    5 1.00
           9184.930301  -0.0054729466134731
          1381.5105503  -0.040954402155135
           313.8714758   -0.18475828956188
          88.053870623   -0.47567280643953
          27.039914905   -0.43495153584169
 s    3 1.00
          45.648731303  -0.091904045808942
          4.9664522326    0.55698777214497
          2.0116242047     0.5111546829846
 s    1 1.00
         0.35661077013                   1
 s    1 1.00
         0.13507221477                   1
 p    5 1.00
          261.98233439  -0.009183054659266
          61.306894736   -0.06590222652599
          19.103729887   -0.24587784518735
          6.6567720378    -0.4823147107602
          2.3959635161   -0.38956314351423
 p    1 1.00
         0.61776161679                   1
 p    1 1.00
         0.16993376871                   1
 d    1 1.00
                  0.55                   1

8 0
 s    5 1.00
           9184.930301  -0.0054729466134731
          1381.5105503  -0.040954402155135
           313.8714758   -0.18475828956188
          88.053870623   -0.47567280643953
          27.039914905   -0.43495153584169
 s    3 1.00
          45.648731303  -0.091904045808942
          4.9664522326    0.55698777214497
          2.0116242047     0.5111546829846
 s    1 1.00
         0.35661077013                   1
 s    1 1.00
         0.13507221477                   1
 p    5 1.00
          261.98233439  -0.009183054659266
          61.306894736   -0.06590222652599
          19.103729887   -0.24587784518735
          6.6567720378    -0.4823147107602
          2.3959635161   -0.38956314351423
 p    1 1.00
         0.61776161679                   1
 p    1 1.00
         0.16993376871                   1
 d    1 1.00
                  0.55                   1

9 0
 s    5 1.00
          1238.4016938  0.0055173650481097
          186.29004992   0.041088828555946
          42.251176346     0.1822538212649
          11.676557932    0.46828459437429
          3.5930506482    0.44575817336002
 s    1 1.00
         0.40245147363                   1
 s    1 1.00
         0.13090182668                   1
 p    3 1.00
          9.4680970621   0.056888332011037
          2.0103545142    0.31294059336471
         0.54771004707    0.76065016509135
 p    1 1.00
         0.15268613795                   1
 d    1 1.00
                   0.8                   1

10 0
 s    3 1.00
             13.010701   0.033485484812989
             1.9622572    0.23472187088125
            0.44453796    0.81377028525955
 s    1 1.00
            0.12194962                   1
 p    1 1.00
                   0.8                   1

11 0
 s    3 1.00
             13.010701   0.033485484812989
             1.9622572    0.23472187088125
            0.44453796    0.81377028525955
 s    1 1.00
            0.12194962                   1
 p    1 1.00
                   0.8                   1

12 0
 s    3 1.00
             13.010701   0.033485484812989
             1.9622572    0.23472187088125
            0.44453796    0.81377028525955
 s    1 1.00
            0.12194962                   1
 p    1 1.00
                   0.8                   1

13 0
 s    5 1.00
          1238.4016938  0.0055173650481097
          186.29004992   0.041088828555946
          42.251176346     0.1822538212649
          11.676557932    0.46828459437429
          3.5930506482    0.44575817336002
 s    1 1.00
         0.40245147363                   1
 s    1 1.00
         0.13090182668                   1
 p    3 1.00
          9.4680970621   0.056888332011037
          2.0103545142    0.31294059336471
         0.54771004707    0.76065016509135
 p    1 1.00
         0.15268613795                   1
 d    1 1.00
                   0.8                   1

14 0
 s    3 1.00
             13.010701   0.033485484812989
             1.9622572    0.23472187088125
            0.44453796    0.81377028525955
 s    1 1.00
            0.12194962                   1
 p    1 1.00
                   0.8                   1

15 0
 s    3 1.00
             13.010701   0.033485484812989
             1.9622572    0.23472187088125
            0.44453796    0.81377028525955
 s    1 1.00
            0.12194962                   1
 p    1 1.00
                   0.8                   1

16 0
 s    3 1.00
             13.010701   0.033485484812989
             1.9622572    0.23472187088125
            0.44453796    0.81377028525955
 s    1 1.00
            0.12194962                   1
 p    1 1.00
                   0.8                   1

17 0
 s    5 1.00
          1238.4016938  0.0055173650481097
          186.29004992   0.041088828555946
          42.251176346     0.1822538212649
          11.676557932    0.46828459437429
          3.5930506482    0.44575817336002
 s    1 1.00
         0.40245147363                   1
 s    1 1.00
         0.13090182668                   1
 p    3 1.00
          9.4680970621   0.056888332011037
          2.0103545142    0.31294059336471
         0.54771004707    0.76065016509135
 p    1 1.00
         0.15268613795                   1
 d    1 1.00
                   0.8                   1

18 0
 s    3 1.00
             13.010701   0.033485484812989
             1.9622572    0.23472187088125
            0.44453796    0.81377028525955
 s    1 1.00
            0.12194962                   1
 p    1 1.00
                   0.8                   1

19 0
 s    3 1.00
             13.010701   0.033485484812989
             1.9622572    0.23472187088125
            0.44453796    0.81377028525955
 s    1 1.00
            0.12194962                   1
 p    1 1.00
                   0.8                   1

20 0
 s    3 1.00
             13.010701   0.033485484812989
             1.9622572    0.23472187088125
            0.44453796    0.81377028525955
 s    1 1.00
            0.12194962                   1
 p    1 1.00
                   0.8                   1

21 0
 s    5 1.00
          1238.4016938  0.0055173650481097
          186.29004992   0.041088828555946
          42.251176346     0.1822538212649
          11.676557932    0.46828459437429
          3.5930506482    0.44575817336002
 s    1 1.00
         0.40245147363                   1
 s    1 1.00
         0.13090182668                   1
 p    3 1.00
          9.4680970621   0.056888332011037
          2.0103545142    0.31294059336471
         0.54771004707    0.76065016509135
 p    1 1.00
         0.15268613795                   1
 d    1 1.00
                   0.8                   1

22 0
 s    3 1.00
             13.010701   0.033485484812989
             1.9622572    0.23472187088125
            0.44453796    0.81377028525955
 s    1 1.00
            0.12194962                   1
 p    1 1.00
                   0.8                   1

23 0
 s    3 1.00
             13.010701   0.033485484812989
             1.9622572    0.23472187088125
            0.44453796    0.81377028525955
 s    1 1.00
            0.12194962                   1
 p    1 1.00
                   0.8                   1

24 0
 s    3 1.00
             13.010701   0.033485484812989
             1.9622572    0.23472187088125
            0.44453796    0.81377028525955
 s    1 1.00
            0.12194962                   1
 p    1 1.00
                   0.8                   1

[5d]
[7f]
[9g]

[MO]
 Sym= A
 Ene=               0
 Spin= Alpha
 Occup=    1.00000
   1    -0.00031411898402067
   2    0.00096262575353761
   3    -0.0041834069693284
   4    0.00031883784762091
   5     0.019600571836256
   6    0.00028482909535876
   7    4.8020538910487e-05
   8    -0.00057273175567235
   9    -0.00090037279573058
  10    -0.00018042472368264
  11    0.0018241629734196
  12    0.00077982192134979
  13    0.0029033375105942
  14    -0.003565717404951
  15    0.0063818487996906
  16      0.64664463218409
  17    -0.005339064915195
  18      0.43101055685951
  19     -0.20923185678343
  20    0.0030426280248631
  21      0.27566188818495
  22    -0.0033143003611075
  23      0.18361959247129
  24    -0.089170460649398
  25    -0.00027049900316224
  26    -0.0010757105618211
  27    -0.00014850854539921
  28    -0.00010264140851793
  29    -0.00066584878023308
  30    -0.00011236304257019
  31    -0.00086883622668045
  32    -8.4852672846434e-05
  33    -0.00057443980528966
  34    -0.00033676319068453
  35    0.0044162035265353
  36    0.0055893685548366
  37    -0.0077157819136852
  38    0.0095375210837557
  39    -0.0035076392902615
  40     0.010350860095013
  41    -0.022291440420645
  42    -0.00086332482849929
  43     0.022917869053979
  44    -0.042383447919533
  45    -0.0053968699556482
  46    -0.0073238123916179
  47    -0.0048379233049021
  48    -0.010164783323322
  49    -0.00025959328944455
  50    -8.7266569674906e-05
  51    -0.00060984681869745
  52    -0.00093192788892049
  53    0.0055866090457426
  54    -0.0042856144212462
  55    0.0025436104288803
  56    -0.010285746271593
  57    0.0037697524093717
  58    -0.013024433299416
  59     0.015096113552193
  60    -0.00087769491106338
  61    -0.026776926360627
  62     0.032764783242839
  63    0.0095517159498545
  64    -0.0056963263767506
  65    0.0028939485007085
  66    -0.0033150678713901
  67    0.0043538743938727
  68    -2.054685223813e-07
  69    2.9076653465857e-05
  70    9.1504697881308e-05
  71    -0.0070051855138826
  72    -0.0050030513740219
  73    0.00017201932678713
  74    -0.00053164491456649
  75    -0.00070047439342924
  76    -0.00054091428401929
  77    0.0016894075610805
  78    0.0022403568959463
  79    0.0021453287490458
  80    -0.010386994511976
  81    -0.010353694820685
  82    -0.00063624802113406
  83    -0.0076534188505899
  84    -0.0044893906694168
  85    -0.0013110849015759
  86    0.0058930274403339
  87    -0.00070338686529418
  88    -0.0030967910108874
  89    -0.006517441176675
  90    0.0018290074373903
  91    0.0042944706640986
  92    8.4022426842691e-05
  93    0.00012942252276022
  94    -0.00010873543077466
  95    0.0001850349372906
  96    0.00015374278435173
  97    -7.060512241431e-05
  98    0.00019577515445356
  99    0.00045037612970822
 100    0.0028563559645363
 101    1.7516400909501e-05
 102    -0.020379990364746
 103    -0.0012712462377037
 104    -0.0011886127963683
 105    -0.00040951091831439
 106    -0.0051347214234897
 107    -0.001865570420398
 108    -0.00012935366067149
 109     0.011564751874938
 110    -0.0058784266903495
 111    -0.0045721622854799
 112    -0.0011419897293552
 113    -0.0096463929417119
 114    0.00039008149284889
 115    0.0028640555171132
 116    -0.0019165855513358
 117    0.00053206465120834
 118    0.0033177770908997
 119    0.0016546729432139
 120      -0.0290997074775
 121    0.0024648446587541
 122    -0.00010731042482967
 123    -0.0012726716882056
 124    0.0063682878092197
 125    0.0018958347064525
 126    -0.00072242858164647
 127    -0.0023833502269274
 128    -0.011454486919279
 129    -0.014075359721391
 130    -0.0022958224943549
 131    -0.0019754405107907
 132    0.0036873176619462
 133    -0.0075287502267511
 134    0.0074252773085254
 135    0.00013668432169991
 136    0.0009003211030509
 137    -0.00074688946777969
 138    -0.0032056180257252
 139    -2.4762244986529e-05
 140    -0.00042101371140399
 141    -0.00075500844006111
 142    6.6924844944175e-06
 143    -0.00087700789145266
 144    -0.0012075586098105
 145    -0.00089706808395003
 146    -0.00059251496714819
 147    -0.0045238083595292
 148    -0.00034936332084391
 149    -0.00016961989670407
 150    0.00017000220225491
 151    2.5939657821713e-05
 152    5.4291355585418e-06
 153    5.5933996317909e-05
 154    0.00037790099298844
 155    -0.00061178893384822
 156    -0.00041603476432517
 157    4.7342174229453e-05
 158    -0.00024884182628427
 159    -1.97181134814e-05
 160    9.2874036258338e-05
 161    -0.00051884743427573
 162    -0.00025327754262455
 163    0.00045173733121609
 164    -0.00085393160196515
 165    0.0014081659651107
 166    -0.00014238253682014
 167    -8.863806916043e-05
 168    0.00023049889910787
 169    4.0869732668533e-05
 170    4.4575982918899e-05
 171    -0.0039229892151955
 172    0.0084151296719303
 173     0.033465280544468
 174    -0.0047972456004956
 175     -0.01053990170399
 176    -0.0066622746215725
 177    -0.010103469425285
 178    -9.5591526045494e-05
 179    -0.012853014599965
 180    0.00052897523598483
 181    0.0004208506445686
 182    0.00086746131593059
 183    3.9581397676326e-05
 184    0.00015150147351862
 185    -0.0029033698630814
 186    -0.0098345545611148
 187    0.00041842568668337
 188    -0.00081832584306871
 189    -9.2092149343911e-05
 190    -0.0045129079543049
 191    -0.012812953599149
 192    -0.00053487223921282
 193    0.00012972539438858
 194    0.00048720447115529
 195     0.003466437126357
 196    -0.0061291641900735
 197    0.00014990934851199
 198    0.00054179238835384
 199    -0.00014144391125522
 200    -0.0041842053932087
 201     0.010058189004496
 202     0.027846175358774
 203     0.011840602227261
 204    -0.0031687991098144
 205    -0.003905778366383
 206    0.0093917167009379
 207    -0.0025367028047645
 208     0.014905231394672
 209    -0.00081698403754113
 210    0.00071369991525684
 211    -0.00011217163085274
 212    0.00059513483085518
 213    -0.00036884388106264
 214    0.0019460124081276
 215    -0.010168133707186
 216    0.00025468673297883
 217    -5.3576630958515e-06
 218    -0.00075018808856492
 219    -0.0073306768333151
 220    -0.017381018783327
 221     4.57534255143e-05
 222    0.00037686932762734
 223    0.00042322498759005
 224    0.0032965866754965
 225    -0.001462190638132
 226    -0.00012705019980369
 227    -0.00063612609304057
 228    0.00018845678809441
 229    1.0650613173733e-05
 230    0.00085579351926771
 231    -0.0068899020468475
 232    5.3840665348834e-05
 233    -8.2584135432133e-05
 234    5.2272341457236e-05
 235     0.002872594027392
 236    -0.00092795870959788
 237    -0.0013154476456275
 238    2.0873392500816e-05
 239    0.0001025298864321
 240    -6.4872924212444e-05
 241    -1.1713037597815e-05
 242    0.0001093598801515
 243    5.8597352912812e-06
 244    0.00073157384151327
 245    -0.00010631285738096
 246    1.2337219617065e-05
 247    -1.3880558457961e-05
 248    0.00024663052516323
 249    0.00065787241401277
 250    -8.3913066954432e-05
 251    2.5968265269559e-05
 252    4.9164911413576e-05
 253    -0.00041619142350288
 254    0.0081298098417359
 255    0.00033449655345598
 256    -0.00016058502498335
 257    -0.00026093513732385
 258    -1.0484906612375e-05
 259    0.00070392253644595
 260    -0.0041276761112681
 261    -0.00017089541560404
 262    4.3772710253338e-05
 263    -3.4819748562255e-05
 264    -0.0018305971140123
 265    -0.0016530195970512
 266    -0.00086736112484205
 267    1.1896645610363e-05
 268    -1.1011866765206e-05
 269    -6.5471223657804e-05
 270    6.9704077023523e-05
 271    -5.651554252597e-05
 272    -3.2162530819352e-05
 273    -7.0451296403151e-06
 274    4.045016412827e-05
 275     5.36904184901e-05
 276    -1.0862895267925e-05
 277    -0.00020607876534132
 278    0.0057667075336821
 279    -0.00016328433622243
 280    -0.00029108917510778
 281    -7.1372029441814e-05
 282    3.6782823112566e-05
 283    0.00042495732661451
 284    7.2931595542713e-05
 285    1.8128897468557e-05
 286    3.7761573203992e-05
 Sym= A
 Ene=               1
 Spin= Alpha
 Occup=    1.00000
   1    0.00069089115196839
   2    -0.0021138621048289
   3    0.0089780271768508
   4    -0.0085259780539245
   5    0.0034504138041369
   6    -0.0012304726230874
   7    0.0003843103193254
   8    0.00014481852795938
   9    0.0039155262746733
  10    -0.001437179324912
  11    -0.00061480642201139
  12    -0.0036565699670405
  13    -0.0016180998203309
  14    -0.0029445301307285
  15     -0.03174178468462
  16     0.027896300788802
  17      0.73887114678285
  18     -0.20029389580567
  19     -0.35291244252829
  20    -0.011366800709184
  21    0.0095528483352416
  22      0.26143194197178
  23    -0.072307949459035
  24     -0.12367034275298
  25    0.00071216701556745
  26    -0.00018458722665939
  27    -0.00072425048124258
  28    0.0011023891877469
  29    0.00053057108500944
  30    -0.00063334310414124
  31    4.162694780566e-05
  32    -2.2524758298997e-05
  33    -0.00029724392952508
  34    0.0047404957166778
  35    -0.0095657135372317
  36    -0.012951299288071
  37    0.0024915410557879
  38     0.007826051010879
  39    -0.022082133868361
  40    0.0048533411553968
  41     0.014297955666187
  42     -0.04126572467689
  43    0.0034980096980476
  44     0.021829001160324
  45    -0.0025655155903295
  46    -0.00074197862115484
  47    -0.004092355758839
  48    0.00087684832560195
  49    0.0028447627093101
  50    0.00081469620409229
  51    0.0052356777161612
  52    -0.0026984729556451
  53     -0.01546672298116
  54     0.015771176570955
  55     0.010358028099179
  56    9.8223997630249e-07
  57     0.026754206330476
  58     0.018657015746562
  59    0.00012164175770452
  60     0.053842749358379
  61     0.027929707911894
  62    -0.0029025939174258
  63    0.00067294014356436
  64    -0.0018545005388282
  65     -0.00217585712285
  66    0.0045581553917168
  67    0.0017299779227489
  68    0.0011443827059134
  69    -0.0033970501501635
  70     0.015328593589624
  71    -0.0090291521091309
  72    0.0058781570099582
  73    5.2790966326265e-05
  74    -0.0015876469416714
  75    -0.0010013386579573
  76    -0.00022032142142573
  77    0.0052103856354686
  78     0.003304473025874
  79    -0.0016030883574185
  80    0.0035784383745851
  81    0.0014291989879119
  82    -0.00073569767150721
  83    0.0015556157204367
  84    -0.0054583273582064
  85     0.006275094869659
  86    0.0032366498270117
  87    8.3141608204706e-05
  88    -0.00030667529731136
  89    0.0014123285232009
  90    -0.0014458489919194
  91    -0.0010723228390343
  92    -0.00010582591119142
  93    -3.9223192678187e-05
  94    0.00018229566979409
  95    -0.0004426506505075
  96    -0.00025747301141785
  97    0.00037385463702008
  98    -0.00036073983188534
  99    -0.0002857419437347
 100    -0.001860070445257
 101    0.0022502196090837
 102    0.0048696855178493
 103    -0.002774647202741
 104    -0.018261626021952
 105    -0.00034063242177327
 106    -0.0046139608487208
 107    -0.031890510230302
 108    -0.00061214702871183
 109    -0.010268281624056
 110    -0.053069514879421
 111    -0.0013683311216166
 112    0.0013395514901586
 113    0.00016110741335643
 114    -0.0062677483045169
 115    -0.00026326200819645
 116    0.00034302409677292
 117    -0.00076023976839749
 118    -0.0049894075705704
 119    0.0069820354625611
 120     0.007682018190526
 121     0.011972746049624
 122    -0.0015493465644184
 123     -0.01235433322238
 124     0.020719419492015
 125    -0.0031796750041706
 126    -0.021724399223083
 127     0.037136675464808
 128    -0.0018474780245774
 129    -0.034473826726644
 130    0.0029446160905271
 131    0.00091596135696326
 132    -0.0060145887960072
 133    0.00042905450734607
 134    0.0013898157501079
 135    -0.00031090542167225
 136    -0.0020804597562839
 137    0.0040247124199065
 138    0.00043730270761874
 139    2.1732152188109e-05
 140    0.00071362805693051
 141     0.002346970167075
 142    -9.4629844095015e-05
 143    0.0014807992113779
 144    0.0042612381140617
 145    0.00099724320857022
 146    0.0011058627085771
 147    0.0068317535926137
 148    5.9901384226988e-05
 149    0.00026480336593902
 150    -0.00045015345408905
 151    -7.7495340326874e-05
 152    5.8015725387997e-05
 153    -0.00027799896881073
 154    -0.0018421007954058
 155    0.0031301238930341
 156    0.0015137786333713
 157    -0.00075170081992712
 158     0.002454495215315
 159    -0.00016021971125803
 160    -0.0012792001133704
 161    0.0043645322758574
 162    -0.00012331452732588
 163    -0.0028269160097905
 164    0.0074907433435519
 165    -0.0015719810511097
 166    0.00023943869938523
 167    5.7006962958355e-05
 168    -0.00035414478880703
 169    0.00010872775234687
 170    -0.00011235631394278
 171    0.0020852132750368
 172    -0.0066007670418766
 173    0.0036105610032486
 174    0.0026291636818729
 175      0.00768226781158
 176    0.0076372077876084
 177    0.0066139358955749
 178    -0.0013821785857932
 179    0.0072622179090951
 180    0.00058271299713578
 181    -0.00052682789541121
 182    0.00016856783684681
 183    -0.00075696396470439
 184    -0.0010623949815937
 185    -0.0042067507082475
 186    -0.0055793662946815
 187    -0.00012757988412067
 188    0.00040797389387569
 189    -8.9925295984353e-05
 190    0.0073878703997705
 191    0.0066079464368835
 192    0.00051069257183881
 193    0.00010704471921863
 194    0.00023392353491151
 195    -0.00059365333044789
 196    -0.0051089486911732
 197    -0.00018412055383615
 198    -0.00021034819463691
 199    -0.0003762617597291
 200    0.0008899484678716
 201    -0.0024357761554877
 202    0.00013856762300824
 203    -0.0042702068123993
 204      0.00247596386297
 205    0.00081532179099549
 206    -0.0032962129518168
 207    0.0016408553449342
 208    -0.0018000617183214
 209    0.00037297232024418
 210    -0.00030886292059658
 211    -9.9866234881949e-05
 212    -0.00061110683373294
 213    -0.0011731879806007
 214    -0.0042252375394869
 215    -0.0049224619545211
 216    2.2424564443407e-06
 217    -0.00026124448367081
 218    3.9526148386926e-06
 219    0.0034336125654196
 220    0.0025647739926871
 221    -0.00019459521909992
 222    8.7612994012476e-05
 223    -0.00010769420161218
 224    0.0022936423246779
 225    0.00075786971948809
 226    0.00039398711241913
 227    -0.00049943874548511
 228    7.7154040430156e-06
 229    2.2357520379121e-05
 230    -5.9178815085407e-05