[Molden Format]
made by pyscf v[2.2.1]
[Atoms] (AU)
Fe   1   26    10.35569916261654     2.17318504324982   -15.17450078025744
S   2   16     7.65339080448850    -1.15273293598469   -16.53510358994429
S   3   16    14.15404867299231     0.79368497231733   -17.08312416606816
Fe   4   26    11.41394579237297    -2.30546587196938   -18.19806257956155
S   5   16    10.33680190137089     2.36215765570633   -10.54467177507304
S   6   16     8.74943195673624     6.19830168857340   -16.57289811243559
S   7   16    10.86592521624911    -2.83458918684759   -22.77119980100900
S   8   16    12.96352121451632    -6.44396608476686   -16.74297346364645
C   9   6    10.41239094635349     8.40928125431453   -14.19184319548361
H   10   1    12.26432254842725     9.12737718164925   -14.96663090655529
H   11   1     9.20296622663185    10.07224024393178   -13.70051440309670
H   12   1    10.80923343251215     7.25654831832984   -12.45329516088376
C   13   6     6.80301404843422     3.21253441176060   -10.46908273009044
H   14   1     5.68807563494084     1.51178089965205   -10.99820604496866
H   15   1     6.19830168857340     3.89283581660403    -8.54156208303408
H   16   1     6.46286334601251     4.68652078892135   -11.92417184600554
C   17   6     9.84547310898397    -7.97464424566456   -17.87680913838549
H   18   1     9.63760323528181    -7.57780175950590   -19.93661061416140
H   19   1     9.84547310898397   -10.05334298268613   -17.49886391347247
H   20   1     8.25810316434932    -7.02978118338203   -16.87525429236600
C   21   6    14.41861033043142    -3.49599333044536   -23.13024776467636
H   22   1    14.92883638406399    -3.89283581660403   -25.15225471796098
H   23   1    15.49575422143351    -1.81413707958246   -22.41215183734163
H   24   1    14.90993912281834    -5.14005505881697   -21.90192578370907
[GTO]
1 0
 s    6 1.00
          60923.640643  0.0017552243692958
          9147.8893982   0.013449023284001
          2081.3505927   0.066678874640978
          587.55977067    0.23176348548844
           191.0904399    0.46945550248188
          65.732730112     0.3596824938678
 s    3 1.00
          127.25891928   -0.10723431835929
           14.83091301    0.62971616328466
          6.0653307408    0.44472317896179
 s    3 1.00
           10.44994371   -0.21694289195548
          1.7245228003    0.69457867408393
         0.71772177325    0.43298308896347
 s    1 1.00
        0.091449828308                   1
 s    1 1.00
        0.033706691021                   1
 p    5 1.00
          773.43750995  0.0091440529992506
          182.15149714   0.067887577136571
          57.547272758    0.26167978878504
          20.614988935    0.51088040113251
           7.634855789    0.33235475570224
 p    3 1.00
           3.871932799    0.33193859098144
          1.4924724132     0.5553666555499
         0.56061284958    0.23106034201617
 p    1 1.00
              0.134915                   1
 d    4 1.00
          38.968133419   0.033335938558743
          10.800067078    0.17766212505983
          3.6136457999      0.441281781625
          1.2129967888    0.57089200490673
 d    1 1.00
          0.3652439317                   1
 f    1 1.00
                 1.598                   1

2 0
 s    5 1.00
           9184.930301  -0.0054729466134731
          1381.5105503  -0.040954402155135
           313.8714758   -0.18475828956188
          88.053870623   -0.47567280643953
          27.039914905   -0.43495153584169
 s    3 1.00
          45.648731303  -0.091904045808942
          4.9664522326    0.55698777214497
          2.0116242047     0.5111546829846
 s    1 1.00
         0.35661077013                   1
 s    1 1.00
         0.13507221477                   1
 p    5 1.00
          261.98233439  -0.009183054659266
          61.306894736   -0.06590222652599
          19.103729887   -0.24587784518735
          6.6567720378    -0.4823147107602
          2.3959635161   -0.38956314351423
 p    1 1.00
         0.61776161679                   1
 p    1 1.00
         0.16993376871                   1
 d    1 1.00
                  0.55                   1

3 0
 s    5 1.00
           9184.930301  -0.0054729466134731
          1381.5105503  -0.040954402155135
           313.8714758   -0.18475828956188
          88.053870623   -0.47567280643953
          27.039914905   -0.43495153584169
 s    3 1.00
          45.648731303  -0.091904045808942
          4.9664522326    0.55698777214497
          2.0116242047     0.5111546829846
 s    1 1.00
         0.35661077013                   1
 s    1 1.00
         0.13507221477                   1
 p    5 1.00
          261.98233439  -0.009183054659266
          61.306894736   -0.06590222652599
          19.103729887   -0.24587784518735
          6.6567720378    -0.4823147107602
          2.3959635161   -0.38956314351423
 p    1 1.00
         0.61776161679                   1
 p    1 1.00
         0.16993376871                   1
 d    1 1.00
                  0.55                   1

4 0
 s    6 1.00
          60923.640643  0.0017552243692958
          9147.8893982   0.013449023284001
          2081.3505927   0.066678874640978
          587.55977067    0.23176348548844
           191.0904399    0.46945550248188
          65.732730112     0.3596824938678
 s    3 1.00
          127.25891928   -0.10723431835929
           14.83091301    0.62971616328466
          6.0653307408    0.44472317896179
 s    3 1.00
           10.44994371   -0.21694289195548
          1.7245228003    0.69457867408393
         0.71772177325    0.43298308896347
 s    1 1.00
        0.091449828308                   1
 s    1 1.00
        0.033706691021                   1
 p    5 1.00
          773.43750995  0.0091440529992506
          182.15149714   0.067887577136571
          57.547272758    0.26167978878504
          20.614988935    0.51088040113251
           7.634855789    0.33235475570224
 p    3 1.00
           3.871932799    0.33193859098144
          1.4924724132     0.5553666555499
         0.56061284958    0.23106034201617
 p    1 1.00
              0.134915                   1
 d    4 1.00
          38.968133419   0.033335938558743
          10.800067078    0.17766212505983
          3.6136457999      0.441281781625
          1.2129967888    0.57089200490673
 d    1 1.00
          0.3652439317                   1
 f    1 1.00
                 1.598                   1

5 0
 s    5 1.00
           9184.930301  -0.0054729466134731
          1381.5105503  -0.040954402155135
           313.8714758   -0.18475828956188
          88.053870623   -0.47567280643953
          27.039914905   -0.43495153584169
 s    3 1.00
          45.648731303  -0.091904045808942
          4.9664522326    0.55698777214497
          2.0116242047     0.5111546829846
 s    1 1.00
         0.35661077013                   1
 s    1 1.00
         0.13507221477                   1
 p    5 1.00
          261.98233439  -0.009183054659266
          61.306894736   -0.06590222652599
          19.103729887   -0.24587784518735
          6.6567720378    -0.4823147107602
          2.3959635161   -0.38956314351423
 p    1 1.00
         0.61776161679                   1
 p    1 1.00
         0.16993376871                   1
 d    1 1.00
                  0.55                   1

6 0
 s    5 1.00
           9184.930301  -0.0054729466134731
          1381.5105503  -0.040954402155135
           313.8714758   -0.18475828956188
          88.053870623   -0.47567280643953
          27.039914905   -0.43495153584169
 s    3 1.00
          45.648731303  -0.091904045808942
          4.9664522326    0.55698777214497
          2.0116242047     0.5111546829846
 s    1 1.00
         0.35661077013                   1
 s    1 1.00
         0.13507221477                   1
 p    5 1.00
          261.98233439  -0.009183054659266
          61.306894736   -0.06590222652599
          19.103729887   -0.24587784518735
          6.6567720378    -0.4823147107602
          2.3959635161   -0.38956314351423
 p    1 1.00
         0.61776161679                   1
 p    1 1.00
         0.16993376871                   1
 d    1 1.00
                  0.55                   1

7 0
 s    5 1.00
           9184.930301  -0.0054729466134731
          1381.5105503  -0.040954402155135
           313.8714758   -0.18475828956188
          88.053870623   -0.47567280643953
          27.039914905   -0.43495153584169
 s    3 1.00
          45.648731303  -0.091904045808942
          4.9664522326    0.55698777214497
          2.0116242047     0.5111546829846
 s    1 1.00
         0.35661077013                   1
 s    1 1.00
         0.13507221477                   1
 p    5 1.00
          261.98233439  -0.009183054659266
          61.306894736   -0.06590222652599
          19.103729887   -0.24587784518735
          6.6567720378    -0.4823147107602
          2.3959635161   -0.38956314351423
 p    1 1.00
         0.61776161679                   1
 p    1 1.00
         0.16993376871                   1
 d    1 1.00
                  0.55                   1

8 0
 s    5 1.00
           9184.930301  -0.0054729466134731
          1381.5105503  -0.040954402155135
           313.8714758   -0.18475828956188
          88.053870623   -0.47567280643953
          27.039914905   -0.43495153584169
 s    3 1.00
          45.648731303  -0.091904045808942
          4.9664522326    0.55698777214497
          2.0116242047     0.5111546829846
 s    1 1.00
         0.35661077013                   1
 s    1 1.00
         0.13507221477                   1
 p    5 1.00
          261.98233439  -0.009183054659266
          61.306894736   -0.06590222652599
          19.103729887   -0.24587784518735
          6.6567720378    -0.4823147107602
          2.3959635161   -0.38956314351423
 p    1 1.00
         0.61776161679                   1
 p    1 1.00
         0.16993376871                   1
 d    1 1.00
                  0.55                   1

9 0
 s    5 1.00
          1238.4016938  0.0055173650481097
          186.29004992   0.041088828555946
          42.251176346     0.1822538212649
          11.676557932    0.46828459437429
          3.5930506482    0.44575817336002
 s    1 1.00
         0.40245147363                   1
 s    1 1.00
         0.13090182668                   1
 p    3 1.00
          9.4680970621   0.056888332011037
          2.0103545142    0.31294059336471
         0.54771004707    0.76065016509135
 p    1 1.00
         0.15268613795                   1
 d    1 1.00
                   0.8                   1

10 0
 s    3 1.00
             13.010701   0.033485484812989
             1.9622572    0.23472187088125
            0.44453796    0.81377028525955
 s    1 1.00
            0.12194962                   1
 p    1 1.00
                   0.8                   1

11 0
 s    3 1.00
             13.010701   0.033485484812989
             1.9622572    0.23472187088125
            0.44453796    0.81377028525955
 s    1 1.00
            0.12194962                   1
 p    1 1.00
                   0.8                   1

12 0
 s    3 1.00
             13.010701   0.033485484812989
             1.9622572    0.23472187088125
            0.44453796    0.81377028525955
 s    1 1.00
            0.12194962                   1
 p    1 1.00
                   0.8                   1

13 0
 s    5 1.00
          1238.4016938  0.0055173650481097
          186.29004992   0.041088828555946
          42.251176346     0.1822538212649
          11.676557932    0.46828459437429
          3.5930506482    0.44575817336002
 s    1 1.00
         0.40245147363                   1
 s    1 1.00
         0.13090182668                   1
 p    3 1.00
          9.4680970621   0.056888332011037
          2.0103545142    0.31294059336471
         0.54771004707    0.76065016509135
 p    1 1.00
         0.15268613795                   1
 d    1 1.00
                   0.8                   1

14 0
 s    3 1.00
             13.010701   0.033485484812989
             1.9622572    0.23472187088125
            0.44453796    0.81377028525955
 s    1 1.00
            0.12194962                   1
 p    1 1.00
                   0.8                   1

15 0
 s    3 1.00
             13.010701   0.033485484812989
             1.9622572    0.23472187088125
            0.44453796    0.81377028525955
 s    1 1.00
            0.12194962                   1
 p    1 1.00
                   0.8                   1

16 0
 s    3 1.00
             13.010701   0.033485484812989
             1.9622572    0.23472187088125
            0.44453796    0.81377028525955
 s    1 1.00
            0.12194962                   1
 p    1 1.00
                   0.8                   1

17 0
 s    5 1.00
          1238.4016938  0.0055173650481097
          186.29004992   0.041088828555946
          42.251176346     0.1822538212649
          11.676557932    0.46828459437429
          3.5930506482    0.44575817336002
 s    1 1.00
         0.40245147363                   1
 s    1 1.00
         0.13090182668                   1
 p    3 1.00
          9.4680970621   0.056888332011037
          2.0103545142    0.31294059336471
         0.54771004707    0.76065016509135
 p    1 1.00
         0.15268613795                   1
 d    1 1.00
                   0.8                   1

18 0
 s    3 1.00
             13.010701   0.033485484812989
             1.9622572    0.23472187088125
            0.44453796    0.81377028525955
 s    1 1.00
            0.12194962                   1
 p    1 1.00
                   0.8                   1

19 0
 s    3 1.00
             13.010701   0.033485484812989
             1.9622572    0.23472187088125
            0.44453796    0.81377028525955
 s    1 1.00
            0.12194962                   1
 p    1 1.00
                   0.8                   1

20 0
 s    3 1.00
             13.010701   0.033485484812989
             1.9622572    0.23472187088125
            0.44453796    0.81377028525955
 s    1 1.00
            0.12194962                   1
 p    1 1.00
                   0.8                   1

21 0
 s    5 1.00
          1238.4016938  0.0055173650481097
          186.29004992   0.041088828555946
          42.251176346     0.1822538212649
          11.676557932    0.46828459437429
          3.5930506482    0.44575817336002
 s    1 1.00
         0.40245147363                   1
 s    1 1.00
         0.13090182668                   1
 p    3 1.00
          9.4680970621   0.056888332011037
          2.0103545142    0.31294059336471
         0.54771004707    0.76065016509135
 p    1 1.00
         0.15268613795                   1
 d    1 1.00
                   0.8                   1

22 0
 s    3 1.00
             13.010701   0.033485484812989
             1.9622572    0.23472187088125
            0.44453796    0.81377028525955
 s    1 1.00
            0.12194962                   1
 p    1 1.00
                   0.8                   1

23 0
 s    3 1.00
             13.010701   0.033485484812989
             1.9622572    0.23472187088125
            0.44453796    0.81377028525955
 s    1 1.00
            0.12194962                   1
 p    1 1.00
                   0.8                   1

24 0
 s    3 1.00
             13.010701   0.033485484812989
             1.9622572    0.23472187088125
            0.44453796    0.81377028525955
 s    1 1.00
            0.12194962                   1
 p    1 1.00
                   0.8                   1

[5d]
[7f]
[9g]

[MO]
 Sym= A
 Ene=               0
 Spin= Alpha
 Occup=    1.00000
   1    -0.00036846223343532
   2    0.0010806622105288
   3    -0.0049789066410637
   4    0.0088603515782952
   5    -0.0028203848790891
   6    -0.0038766813275173
   7     0.007703985650306
   8    -0.012778405610178
   9     0.012024174270421
  10    -0.024060149583302
  11     0.039920871779149
  12    -0.019072155747671
  13     0.041015728543474
  14    -0.066662686004618
  15      0.45126356517671
  16    -0.028684568094865
  17      0.12513294811242
  18      0.25151388019039
  19      0.16301741111775
  20      0.20133163386988
  21    -0.026246587414733
  22     0.055441614646317
  23      0.11499712412435
  24     0.065882724284458
  25    -0.00050472487160806
  26    0.0010546082729443
  27    -0.0013116567382337
  28    -0.00051966638735971
  29    6.0394538310656e-05
  30    0.0006470285563286
  31    0.00016205159264947
  32    -0.00014878169255106
  33    -0.00097453665068036
  34    0.00022103391581102
  35    0.0034262720425296
  36    0.0043258392270273
  37    -0.0024686297150621
  38    0.0036298925121646
  39    0.0087575072030028
  40    -0.0045420647207322
  41    0.0075719695127052
  42     0.012114738869967
  43    -0.010914385511918
  44     0.015802371690566
  45    -0.0015984966350134
  46    -0.0048969146265583
  47    -0.0023236476260287
  48    -0.0037294925125941
  49    0.0012504550561619
  50    0.00050583200369915
  51    0.0033834426199975
  52    -0.0058838955283102
  53    -0.0011660189388557
  54    -0.043940580732201
  55     0.088975843594425
  56      -0.1461835575247
  57    -0.076327171883618
  58      0.15635336650955
  59     -0.25796131341995
  60     -0.11583084852467
  61      0.22898759767671
  62     -0.37693338631571
  63    -0.006682993037288
  64     0.016088050742753
  65    0.0050539673885137
  66    0.0057881652870738
  67    -0.010460794419109
  68    -0.00019344741560291
  69    0.00056978890690214
  70    -0.0026073762987571
  71    0.0035683115595579
  72    -0.0048944459996697
  73    -0.0013640348434728
  74    0.0024507357121555
  75    -0.0039629167173618
  76      0.00420731380552
  77    -0.0075660217987253
  78     0.012176233307373
  79    -0.0049544279638125
  80    0.0073375966492672
  81    -0.016398720518038
  82    0.00080360830426753
  83     0.045175881891989
  84     0.020180298073692
  85     0.027094840055416
  86     -0.01924201782007
  87    -0.0039987356902365
  88      0.01694446019588
  89    0.0046857211614512
  90    0.0085689722925558
  91    -0.008499662060864
  92    0.00038768350225172
  93    -0.00027672968449763
  94    -0.0008018183269319
  95    -0.0001160547090778
  96    -0.0006664801896529
  97    -0.00054148231173609
  98    -0.00030225458398693
  99    0.0014655767484165
 100    0.0096996207773413
 101    -0.013742488301934
 102    0.0011263077948359
 103    -5.7011521513613e-05
 104    -0.0064634799735628
 105     0.012697450113788
 106    0.00061595467124088
 107    -0.011308512517774
 108     0.021573445453423
 109    -0.002870340410969
 110    -0.019050774987958
 111     0.040044259778291
 112    0.0038772013148759
 113    0.00012429077533294
 114    -0.00089739420516343
 115    -0.00029615102151557
 116    0.0010332730039391
 117    -0.0014505047196661
 118    -0.0096505200886814
 119     0.012774367956215
 120    0.0013023757810245
 121    -0.0032541369066452
 122    -0.011096737551599
 123     0.013443520478804
 124    -0.0058389188370587
 125    -0.019016741076445
 126     0.023550365760472
 127    -0.0069713031683793
 128    -0.034402417050716
 129     0.040930137044249
 130    0.00067957765816341
 131     -0.00144423275872
 132    0.0041034044041837
 133    0.00082814978642361
 134    0.0015017305135858
 135    0.00088584559628618
 136     0.005797238485152
 137    -0.0083708164763552
 138    -0.0090240386312563
 139    -0.0011709704289129
 140    -0.0089628735985795
 141    -0.009347876426066
 142    -0.0022233264454782
 143    -0.015542949938383
 144    -0.015836652978251
 145    -0.0040811873760679
 146    -0.024995850710343
 147    -0.030917013855502
 148    -0.00080722742346492
 149    -0.00064064468718287
 150    -6.8206643114191e-06
 151    -8.202703506178e-05
 152    -0.00026791502060742
 153    -0.0010664359206226
 154    -0.0069319681238098
 155     0.008646205970503
 156     0.015889084188642
 157    -0.0040493297850631
 158     0.011732959397348
 159    0.0037189922476902
 160    -0.0062508223981576
 161     0.020151832704244
 162    0.0065506759689844
 163    -0.018775805341754
 164     0.034907207980554
 165    0.0082969173517672
 166    5.1155006113661e-05
 167    -0.00048283622728013
 168    -0.00081692909727633
 169    -0.00045867665678989
 170    -0.0015445365736978
 171    -0.0017142857651989
 172    0.0052742333528592
 173    0.0027464862200336
 174    -0.0013747172342941
 175    -0.0058698854984365
 176    -0.0040738321749916
 177    -0.0033403944570231
 178    -0.0023437797206575
 179    0.0036933749904303
 180    -0.00086938296087798
 181    -0.00010207222658492
 182    0.00054741543950978
 183    -0.00017193297409407
 184    0.00080403868381323
 185    0.0029687526885865
 186    0.0069573749078354
 187    -0.00017638264724993
 188    -0.00035264398551331
 189    -1.0658863925777e-05
 190    -0.0021505884090082
 191    -0.0025946590879111
 192    -0.00014547787464853
 193    0.00019651583897695
 194    -8.8483001244153e-05
 195    -0.0043454033248279
 196    -0.013017035699551
 197    4.2019297534387e-05
 198    -7.2293241299688e-05
 199    -0.00013056402178371
 200    0.0020742211713113
 201    -0.0047581872736588
 202    -0.011711551755415
 203    -0.0067610931313305
 204    0.0014950702889823
 205    0.0028988834917614
 206    -0.0014807115207297
 207    -0.0040318423089742
 208    0.00065526902061496
 209    0.00057927565124313
 210    0.00064696010297576
 211    -0.00031943614940219
 212    -0.00064146694756139
 213    -0.00013963090069301
 214    -0.0012320086241338
 215    0.0020593321001237
 216    -0.00025407020965886
 217    0.0001116711255782
 218    0.00012089287364796
 219    0.0010628938586777
 220    0.0026620604323208
 221    0.00018005878434294
 222    -1.96590558517e-05
 223    -0.00015797807923333
 224    0.0035387945703376
 225     0.013263199634911
 226    -0.00020920662263951
 227    0.00014900368788004
 228    -0.0001259719246303
 229    0.0012018454461384
 230    -0.0009164030320293
 231     -0.01698154593728
 232    -0.0033519341165571
 233    -0.0043462364445224
 234    -0.0023326762651282
 235    -0.0036449096022365
 236    -0.0043961314094625
 237    -0.00078522592231275
 238    0.0001251580655508
 239    9.7323235892018e-06
 240    3.3416669099146e-05
 241    -0.0009205925217239
 242    0.00026149282453773
 243    0.0013046720980916
 244    0.0068980393025823
 245    6.4794634868393e-06
 246    -0.0001053272127182
 247    7.7951617551247e-05
 248    0.0050011294397774
 249    0.0052599095565349
 250    -0.00020843187853869
 251    4.5560223115945e-05
 252    -0.00020477437364513
 253    -0.0030968085236078
 254    0.0034745225495653
 255    0.00015199728130024
 256    0.00018624202199803
 257    2.2382271316113e-05
 258    0.00073667280709656
 259    -0.0011217006907308
 260    -0.0047364279093696
 261    -0.0040409863132363
 262    -0.003899068025017
 263     -0.00035740703778
 264    -0.0056427495223499
 265    -0.0059064362389341
 266    -0.002380948638594
 267    -0.0001235046245263
 268    0.00049374401267451
 269    -9.4671491515096e-05
 270    0.00019522711741081
 271    0.00036749767207075
 272    -0.0022353204594229
 273    -0.0028867223582355
 274    -0.00020189743463243
 275    -8.4025772072246e-05
 276    -0.00016448381977676
 277    -9.7479522110874e-05
 278     0.010667319402224
 279    -0.00022559281459889
 280    0.00066768298532587
 281    0.00078861926098103
 282    0.0011463263061779
 283    -0.0014805132740393
 284    -5.0988433309445e-05
 285    2.9737529064422e-05
 286    1.7097118298828e-05
 Sym= A
 Ene=               1
 Spin= Alpha
 Occup=    1.00000
   1    0.00067273905385307
   2    -0.0020602079430321
   3     0.008733700580351
   4    -0.0081634194852265
   5    0.0035167288452544
   6    -0.0013412067505612
   7    0.00063724302637057
   8    -0.00031560547983054
   9     0.004257120739427
  10    -0.0022234912442993
  11    0.00081982374962075
  12    -0.0042274838277913
  13    -0.00036297593992906
  14    -0.005155174690037
  15    -0.022832592318574
  16     0.032545406181661
  17       0.7417537578612
  18     -0.19192641111797
  19     -0.35153381436906
  20    -0.0065790271833375
  21     0.010376156912543
  22      0.26177829802368
  23    -0.068458217712768
  24     -0.12174569144799
  25    0.0007034303486693
  26    -0.00013005228986783
  27    -0.00076782445810052
  28    0.0010654004905985
  29    0.00052793484161198
  30    -0.00061370086050174
  31    6.3773084304858e-05
  32    -1.8911570976409e-05
  33    -0.00027133572160405
  34    0.0046378537407616
  35    -0.0094752197918434
  36    -0.012852795127436
  37    0.0022735980039253
  38    0.0080697100148739
  39     -0.02160307752417
  40     0.004508991975378
  41     0.014514050957066
  42      -0.0406366637713
  43    0.0027683322179058
  44     0.022485108387505
  45    -0.0026133794081979
  46    -0.00093537478516147
  47    -0.0041657934346979
  48    0.00073271281413155
  49     0.002891195008978
  50    0.0008356630860264
  51    0.0053746787527917
  52    -0.0029686883759691
  53    -0.015436782270427
  54     0.012493645076046
  55     0.016861005627913
  56    -0.010461316780981
  57     0.020897791230544
  58     0.030059459658093
  59     -0.01821584701745
  60     0.045324768129963
  61     0.044666056670513
  62    -0.029946639797101
  63    0.00042175526724228
  64    -0.00096059202775643
  65    -0.0018161796013951
  66     0.004952797060882
  67    0.0011911118363315
  68    0.0011312473721877
  69    -0.0033585718322847
  70      0.01515032588891
  71    -0.0087172151380196
  72    0.0053436358883217
  73    -3.9220194309309e-05
  74    -0.0014215837888343
  75    -0.0012682899574513
  76    6.439994413105e-05
  77    0.0046978055011875
  78    0.0041236944034998
  79    -0.0019165541816193
  80    0.0040017863547408
  81    0.00048893903676405
  82    -0.0007070820358226
  83     0.005025949895637
  84    -0.0039392684050216
  85     0.007870996047154
  86    0.0018114924653823
  87    -0.0001102792946596
  88    0.00099897783876878
  89     0.001474052769602
  90    -0.00062602473483344
  91    -0.0013553412236645
  92    -7.5032596541296e-05
  93    -6.0319043731997e-05
  94    0.00013496739715116
  95    -0.00045425319115898
  96    -0.00030492884026413
  97    0.00033124550299818
  98    -0.00038071115005912
  99    -0.000288344349704
 100    -0.001874885846442
 101    0.0022765037578159
 102    0.0053277609205721
 103    -0.0027314608770453
 104     -0.01857224161307
 105    -0.00039655125108116
 106    -0.0045011552574577
 107    -0.032434126399325
 108    -0.00070580291287634
 109    -0.010409255909157
 110    -0.053928432830911
 111    -0.0016107294168866
 112    0.0014524397040872
 113    0.00013220315685262
 114    -0.0062847135039956
 115    -0.00027960379900454
 116    0.00038133936775284
 117    -0.00074961667764797
 118    -0.0049237910585215
 119    0.0068605317665982
 120    0.0072019441284814
 121     0.011505217921527
 122    -0.0015117650930047
 123     -0.01189666616948
 124     0.019902272214086
 125    -0.0031099800811259
 126    -0.020903451414839
 127     0.035778851190645
 128    -0.001771503659929
 129    -0.033276417152966
 130    0.0029573236398501
 131    0.00085803783306161
 132    -0.0058616468586715
 133    0.00039800758459994
 134    0.0014815440904107
 135    -0.00024842915924237
 136    -0.0016690135082153
 137    0.0033667049272002
 138    -2.1879664861873e-05
 139    -5.3270938846857e-05
 140    0.00013177396513963
 141    0.0017335090576481
 142    -0.00023628049507012
 143    0.00046057338014699
 144     0.003209420684837
 145    0.00073390254663064
 146    -0.00047017434631659
 147    0.0048704574620716
 148    1.5758380382601e-05
 149    0.00021773871498502
 150    -0.00043927414877916
 151    -8.4934310420704e-05
 152    4.2514433247632e-05
 153    -0.00035458732100322
 154    -0.0023424305304124
 155    0.0038024841069333
 156    0.0025474998081756
 157    -0.0010024446345321
 158    0.0032319135164779
 159    5.8101778553232e-05
 160    -0.0016640149948273
 161     0.005718801095904
 162    0.00026521122781722
 163    -0.004023388740905
 164    0.0097260020467814
 165    -0.0011243392101395
 166    0.00025321022223892
 167    2.5460026165837e-05
 168    -0.0004115110672535
 169    8.5605912509777e-05
 170    -0.00021510762231355
 171    0.0019925013335542
 172    -0.0063564061305139
 173    0.0038839108215851
 174    0.0025521395442432
 175    0.0073443154729138
 176    0.0073930420344369
 177    0.0063674127231599
 178    -0.001575785236614
 179    0.0072502387778449
 180    0.0005659281910005
 181    -0.00050677187275096
 182    0.00017045121405134
 183    -0.00073796872478183
 184    -0.0010225801748527
 185    -0.0040750422639039
 186    -0.005242469703411
 187    -0.00013636477075344
 188    0.00039052580752993
 189    -8.6976673529516e-05
 190    0.0071168796664639
 191    0.0062980576116434
 192    0.00049600373167093
 193    0.0001108927020293
 194    0.00022441211014866
 195    -0.00063189477953051
 196    -0.0055089583350006
 197    -0.00017681937579611
 198    -0.00021187075335158
 199    -0.00038165980606813
 200    0.00095815048331734
 201    -0.0025309359610139
 202    -0.00052592417606792
 203    -0.0045265693503521
 204    0.0025539365432025
 205    0.00093617962635949
 206    -0.0035007383691455
 207    0.0015420332105924
 208    -0.001643335665823
 209    0.00039441328195181
 210    -0.00031223081595727
 211    -9.88771299857e-05
 212    -0.00063459210921488
 213    -0.0011825988064473
 214    -0.0042964966600884
 215    -0.0048973850800813
 216    3.9770100715583e-07
 217    -0.00026183103700563
 218    3.5179586927771e-06
 219    0.0035984952044974
 220    0.0027308117156493
 221    -0.0001953036603065
 222    9.0190820396628e-05
 223    -0.0001151533065026
 224    0.0023763365152059
 225    0.0012430294244355
 226    0.00039126851648521
 227    -0.00049533968606235
 228    6.2116834690337e-06
 229    0.00010347868670296
 230    -0.00012480387277337
 231    -0.0019947324238175
 232    -0.0010043775184957
 233    -0.00047572884173915