[Molden Format]
made by pyscf v[2.4.0]
[Atoms] (AU)
Fe   1   26     3.17068844873907     0.00098706064664     0.12237737881307
O   2   8     0.00000000000000     0.00000000000000    -0.89004350580623
Fe   3   26    -3.17068844873907    -0.00098706064664     0.12237737881307
Cl   4   17     3.53383895113107    -2.07485195383062     3.76228752659000
Cl   5   17     5.54152580550813    -1.85590924879884    -2.78672786652360
Cl   6   17     4.48169216485503     3.92976278472880    -0.95330240907949
Cl   7   17    -3.53383895113107     2.07485195383062     3.76228752659000
Cl   8   17    -5.54152580550813     1.85590924879884    -2.78672786652360
Cl   9   17    -4.48169216485503    -3.92976278472880    -0.95330240907949
[GTO]
1 0
 s    6 1.00
              61132.62  0.0017661109761772
              9179.342   0.013530379817491
              2090.857   0.066731279099873
              589.2479    0.23148229687757
              188.7543    0.47970579352933
              64.44629    0.35019759527624
 s    6 1.00
               1259.98   0.002438014026839
              299.8761   0.032240480354921
              96.84917    0.12657240139338
               36.3102  -0.031399020345658
              14.72996   -0.62075930683366
              6.066075   -0.45029140495706
 s    6 1.00
              50.43485  -0.0038732559842369
              16.83929   0.071965979707118
              7.192086    0.25565909895954
               3.05342   -0.28828369882676
              1.273643   -0.73428219701167
              0.504091   -0.20493529916597
 s    3 1.00
              1.950316   0.056948690305124
              0.736721    0.28829150154463
              0.114177    -1.1381590060981
 s    1 1.00
              0.041148                   1
 p    6 1.00
               1259.98  0.0040280186654072
              299.8761   0.031446467387857
              96.84917    0.13683168863389
               36.3102    0.34872357103281
              14.72996    0.46179306164054
              6.066075    0.20430578302906
 p    6 1.00
              50.43485  -0.0070171278804837
              16.83929  -0.028776599509875
              7.192086   0.061813828947182
               3.05342     0.3954945932639
              1.273643    0.49890589150259
              0.504091    0.17912509694913
 p    3 1.00
              1.950316   -0.45937961634956
              0.736721    0.28521391015091
              0.114177    0.90764853230368
 p    1 1.00
              0.041148                   1
 d    3 1.00
              23.14994   0.088769354792419
              6.122368    0.38963192103518
              1.846601    0.70148163787111
 d    1 1.00
              0.504361                   1
 f    1 1.00
                   0.8                   1

2 0
 s    6 1.00
             5484.6717   0.001831099805527
             825.23495   0.013950098518422
             188.04696    0.06844509273075
               52.9645    0.23271427528445
              16.89757    0.47019295006289
             5.7996353    0.35852086192309
 s    3 1.00
             15.539616   -0.11077750382508
             3.5999336   -0.14802630511126
             1.0137618     1.1307670390447
 s    1 1.00
             0.2700058                   1
 p    3 1.00
             15.539616   0.070874299543311
             3.5999336    0.33975279781076
             1.0137618    0.72715859531445
 p    1 1.00
             0.2700058                   1
 d    1 1.00
                   0.8                   1

3 0
 s    6 1.00
              61132.62  0.0017661109761772
              9179.342   0.013530379817491
              2090.857   0.066731279099873
              589.2479    0.23148229687757
              188.7543    0.47970579352933
              64.44629    0.35019759527624
 s    6 1.00
               1259.98   0.002438014026839
              299.8761   0.032240480354921
              96.84917    0.12657240139338
               36.3102  -0.031399020345658
              14.72996   -0.62075930683366
              6.066075   -0.45029140495706
 s    6 1.00
              50.43485  -0.0038732559842369
              16.83929   0.071965979707118
              7.192086    0.25565909895954
               3.05342   -0.28828369882676
              1.273643   -0.73428219701167
              0.504091   -0.20493529916597
 s    3 1.00
              1.950316   0.056948690305124
              0.736721    0.28829150154463
              0.114177    -1.1381590060981
 s    1 1.00
              0.041148                   1
 p    6 1.00
               1259.98  0.0040280186654072
              299.8761   0.031446467387857
              96.84917    0.13683168863389
               36.3102    0.34872357103281
              14.72996    0.46179306164054
              6.066075    0.20430578302906
 p    6 1.00
              50.43485  -0.0070171278804837
              16.83929  -0.028776599509875
              7.192086   0.061813828947182
               3.05342     0.3954945932639
              1.273643    0.49890589150259
              0.504091    0.17912509694913
 p    3 1.00
              1.950316   -0.45937961634956
              0.736721    0.28521391015091
              0.114177    0.90764853230368
 p    1 1.00
              0.041148                   1
 d    3 1.00
              23.14994   0.088769354792419
              6.122368    0.38963192103518
              1.846601    0.70148163787111
 d    1 1.00
              0.504361                   1
 f    1 1.00
                   0.8                   1

4 0
 s    6 1.00
               25180.1  0.0018330003117875
               3780.35   0.014034002387139
               860.474   0.069097011753181
               242.145    0.23745204038983
               77.3349    0.48303408216255
                26.247    0.33985605780843
 s    6 1.00
               491.765  -0.0022974019889149
               116.984  -0.030714026589855
               37.4153   -0.11252809741822
               13.7834   0.045016038971443
               5.45215    0.58935351021719
               2.22588    0.46520640274012
 s    3 1.00
               3.18649    -0.2518312880459
               1.14427   0.061589315011948
              0.420377     1.0601854225489
 s    1 1.00
              0.142657                   1
 p    6 1.00
               491.765  0.0039894005477754
               116.984   0.030318004162896
               37.4153    0.12988001783353
               13.7834     0.3279510450302
               5.45215    0.45352706227276
               2.22588    0.25215403462269
 p    3 1.00
               3.18649   -0.01429901271425
               1.14427    0.32357228771069
              0.420377    0.74350766110453
 p    1 1.00
              0.142657                   1
 d    1 1.00
                  0.75                   1

5 0
 s    6 1.00
               25180.1  0.0018330003117875
               3780.35   0.014034002387139
               860.474   0.069097011753181
               242.145    0.23745204038983
               77.3349    0.48303408216255
                26.247    0.33985605780843
 s    6 1.00
               491.765  -0.0022974019889149
               116.984  -0.030714026589855
               37.4153   -0.11252809741822
               13.7834   0.045016038971443
               5.45215    0.58935351021719
               2.22588    0.46520640274012
 s    3 1.00
               3.18649    -0.2518312880459
               1.14427   0.061589315011948
              0.420377     1.0601854225489
 s    1 1.00
              0.142657                   1
 p    6 1.00
               491.765  0.0039894005477754
               116.984   0.030318004162896
               37.4153    0.12988001783353
               13.7834     0.3279510450302
               5.45215    0.45352706227276
               2.22588    0.25215403462269
 p    3 1.00
               3.18649   -0.01429901271425
               1.14427    0.32357228771069
              0.420377    0.74350766110453
 p    1 1.00
              0.142657                   1
 d    1 1.00
                  0.75                   1

6 0
 s    6 1.00
               25180.1  0.0018330003117875
               3780.35   0.014034002387139
               860.474   0.069097011753181
               242.145    0.23745204038983
               77.3349    0.48303408216255
                26.247    0.33985605780843
 s    6 1.00
               491.765  -0.0022974019889149
               116.984  -0.030714026589855
               37.4153   -0.11252809741822
               13.7834   0.045016038971443
               5.45215    0.58935351021719
               2.22588    0.46520640274012
 s    3 1.00
               3.18649    -0.2518312880459
               1.14427   0.061589315011948
              0.420377     1.0601854225489
 s    1 1.00
              0.142657                   1
 p    6 1.00
               491.765  0.0039894005477754
               116.984   0.030318004162896
               37.4153    0.12988001783353
               13.7834     0.3279510450302
               5.45215    0.45352706227276
               2.22588    0.25215403462269
 p    3 1.00
               3.18649   -0.01429901271425
               1.14427    0.32357228771069
              0.420377    0.74350766110453
 p    1 1.00
              0.142657                   1
 d    1 1.00
                  0.75                   1

7 0
 s    6 1.00
               25180.1  0.0018330003117875
               3780.35   0.014034002387139
               860.474   0.069097011753181
               242.145    0.23745204038983
               77.3349    0.48303408216255
                26.247    0.33985605780843
 s    6 1.00
               491.765  -0.0022974019889149
               116.984  -0.030714026589855
               37.4153   -0.11252809741822
               13.7834   0.045016038971443
               5.45215    0.58935351021719
               2.22588    0.46520640274012
 s    3 1.00
               3.18649    -0.2518312880459
               1.14427   0.061589315011948
              0.420377     1.0601854225489
 s    1 1.00
              0.142657                   1
 p    6 1.00
               491.765  0.0039894005477754
               116.984   0.030318004162896
               37.4153    0.12988001783353
               13.7834     0.3279510450302
               5.45215    0.45352706227276
               2.22588    0.25215403462269
 p    3 1.00
               3.18649   -0.01429901271425
               1.14427    0.32357228771069
              0.420377    0.74350766110453
 p    1 1.00
              0.142657                   1
 d    1 1.00
                  0.75                   1

8 0
 s    6 1.00
               25180.1  0.0018330003117875
               3780.35   0.014034002387139
               860.474   0.069097011753181
               242.145    0.23745204038983
               77.3349    0.48303408216255
                26.247    0.33985605780843
 s    6 1.00
               491.765  -0.0022974019889149
               116.984  -0.030714026589855
               37.4153   -0.11252809741822
               13.7834   0.045016038971443
               5.45215    0.58935351021719
               2.22588    0.46520640274012
 s    3 1.00
               3.18649    -0.2518312880459
               1.14427   0.061589315011948
              0.420377     1.0601854225489
 s    1 1.00
              0.142657                   1
 p    6 1.00
               491.765  0.0039894005477754
               116.984   0.030318004162896
               37.4153    0.12988001783353
               13.7834     0.3279510450302
               5.45215    0.45352706227276
               2.22588    0.25215403462269
 p    3 1.00
               3.18649   -0.01429901271425
               1.14427    0.32357228771069
              0.420377    0.74350766110453
 p    1 1.00
              0.142657                   1
 d    1 1.00
                  0.75                   1

9 0
 s    6 1.00
               25180.1  0.0018330003117875
               3780.35   0.014034002387139
               860.474   0.069097011753181
               242.145    0.23745204038983
               77.3349    0.48303408216255
                26.247    0.33985605780843
 s    6 1.00
               491.765  -0.0022974019889149
               116.984  -0.030714026589855
               37.4153   -0.11252809741822
               13.7834   0.045016038971443
               5.45215    0.58935351021719
               2.22588    0.46520640274012
 s    3 1.00
               3.18649    -0.2518312880459
               1.14427   0.061589315011948
              0.420377     1.0601854225489
 s    1 1.00
              0.142657                   1
 p    6 1.00
               491.765  0.0039894005477754
               116.984   0.030318004162896
               37.4153    0.12988001783353
               13.7834     0.3279510450302
               5.45215    0.45352706227276
               2.22588    0.25215403462269
 p    3 1.00
               3.18649   -0.01429901271425
               1.14427    0.32357228771069
              0.420377    0.74350766110453
 p    1 1.00
              0.142657                   1
 d    1 1.00
                  0.75                   1

[5d]
[7f]
[9g]

[MO]
 Sym= A
 Ene=               0
 Spin= Alpha
 Occup=    1.00000
   1    0.0012277724616981
   2    0.0054558812326713
   3    -0.013005259691578
   4     0.033083913416453
   5    0.00099180841166987
   6    0.0022391281204842
   7    0.0018039285049499
   8    -0.0064421427651217
   9    -0.0045908436555192
  10    -0.0033230407153981
  11     0.010998181252516
  12    0.0076953492266242
  13    0.0074612735120148
  14    -0.027900785120889
  15    -0.0011224037885753
  16    -0.0061723667477713
  17     0.010849593466443
  18      0.22301008185362
  19     -0.34196833565698
  20     -0.49700207334321
  21      0.40070964175327
  22      0.18079099226036
  23      0.10812297944727
  24     -0.16645345498401
  25     -0.24211040280542
  26      0.19598036525997
  27     0.088537456431074
  28    0.0018469849248125
  29    -0.001614413626954
  30    -0.0018830107986619
  31    5.6622735257179e-05
  32    -0.001066726356862
  33    0.0019589026518765
  34    0.00044618471133968
  35    0.00020654825360953
  36    9.685871719617e-05
  37    0.0013773836118761
  38    -0.00029593158325676
  39    0.00069998925046699
  40    -0.031033429723753
  41    -0.00081809677031109
  42    0.00015976304717533
  43    -0.029254016514269
  44    -5.003648335525e-05
  45    8.4199239016531e-05
  46    -0.00093985447725726
  47    0.00012303015080511
  48    0.00026938987165438
  49    0.00017193777334993
  50    0.00084965559923362
  51    -0.0016212993541152
  52    0.0058368966076552
  53    0.0073091978709548
  54    -0.0011395114752997
  55    2.1920984536889e-05
  56    -0.00063938677112397
  57    0.0025165440213472
  58    -0.00025581176278669
  59    0.0010912951793861
  60    -0.0036401065808492
  61    -0.00049662616364049
  62    -0.002846040988215
  63    0.0027888248769515
  64    0.0015790886277267
  65    -0.0073086491506521
  66    9.4708615524922e-05
  67    0.00011177216754507
  68    -0.00013205841574752
  69    -0.00023286723993644
  70    -1.5549644232361e-05
  71    0.0012019700330062
  72    -0.0012944223513262
  73    0.00025233908335867
  74    -0.0010979246288767
  75    0.00018511815757264
  76    0.00018881561530779
  77    0.00072904529807838
  78    8.7241342864049e-05
  79    -0.00031852266234905
  80    -3.6975471059493e-06
  81    -0.00041971041326614
  82    4.8982403834718e-05
  83    -0.0018475770019711
  84    0.0094229227741907
  85    -0.014191744910972
  86        -0.01001892111
  87    -0.014155166630062
  88     0.010794578303291
  89    -0.015670078256589
  90     0.036186407976798
  91    -0.027196373630779
  92     0.039282378432969
  93     0.024225302864451
  94    -0.019271291331375
  95     0.030076115480033
  96    -0.00030223316645846
  97     0.002941110677078
  98    -0.0011531863962666
  99    0.00076276079125577
 100    -0.0018447679093925
 101    0.00042233183115141
 102    -0.002289638178435
 103     0.002765228228701
 104    0.0052192381265479
 105     0.013702761174919
 106     0.022595713446406
 107    -0.010379609136673
 108    -0.034953635752904
 109    -0.058106981246866
 110     0.026543004887813
 111      -0.0247493742919
 112    -0.038409925078859
 113     0.019505180553105
 114    -0.0014723122238695
 115    0.0024056337650975
 116    0.0034959863378148
 117    -0.004128761506422
 118    -0.0025780747342448
 119    0.00046660537363789
 120    -0.0025970630417803
 121    0.0027995588543289
 122    0.0084619333206694
 123     0.011832552168512
 124    -0.0041060126290982
 125    -0.023562763048006
 126    -0.030235818699659
 127       0.0106498205211
 128     0.060371777435576
 129    -0.021069622753415
 130     0.004867868448581
 131     0.041695722769259
 132    -0.0021685247494108
 133    0.0023192951557978
 134    0.0036733291200357
 135    -0.003270892349448
 136    -0.0013892931454502
 137    0.00020597782300745
 138    -0.00078196450814099
 139    0.0026613454419374
 140    0.00092286114205249
 141    -0.0014064618587378
 142     0.000546063337528
 143    0.00058630790963745
 144    0.0038146100586646
 145    -0.0014557676604458
 146    -0.0017488099544368
 147     0.001557555354522
 148    -0.0017034147873727
 149    -0.00072851428113193
 150    9.2944303056468e-05
 151    0.00020066531767888
 152    -4.8492345989872e-05
 153    -0.0001165267917885
 154    0.00017612239634054
 155    -5.0679173401132e-05
 156    0.00034469396039528
 157    -0.0001170536707497
 158    -0.0041793048924708
 159    0.00064974117389454
 160    1.273610346071e-05
 161    -0.00054430734640643
 162    -0.001769988110014
 163    7.1006480504732e-05
 164    0.0012175674491454
 165    -0.0013952756127074
 166    0.00010122396653238
 167    0.0015430828739496
 168    -4.7112266908055e-06
 169    1.2890727214472e-05
 170    -6.5608803538877e-05
 171    7.4905105630421e-05
 172    -7.2549813892687e-05
 173    3.2226792930846e-05
 174    2.7319889342666e-05
 175    0.00096298842007129
 176    -0.0027507203463374
 177    -0.00017228922063847
 178    -7.7160652817593e-05
 179    -0.0006242423014853
 180    0.00061401674325837
 181    0.00026687151150565
 182    0.0015496058946288
 183    -0.0007131061682221
 184    -0.00073267977659594
 185    0.0020190404423159
 186    -1.4191100784455e-05
 187    -0.00010305912468299
 188    -4.7118037074329e-05
 189    -1.6700546688794e-05
 190    -3.2777208524319e-05
 Sym= A
 Ene=               1
 Spin= Alpha
 Occup=    1.00000
   1    -0.00067801497396182
   2    -0.0031512931171976
   3    0.0068705390661819
   4    -0.020788919839506
   5    -0.0033140918042887
   6    -0.0013696873819809
   7    0.0093123610292557
   8    0.0041610185271375
   9    0.0027362509904169
  10    -0.015606603389552
  11    -0.0066429362661446
  12    -0.0048264265582018
  13     0.040682036155049
  14     0.018697146774321
  15     0.004841806790352
  16    -0.014002201913068
  17    -0.0025408712237499
  18      0.53943262154872
  19      0.08961733567324
  20      0.42290000929143
  21      0.15515249402845
  22      0.32446838255829
  23      0.26173144746044
  24     0.042819698818745
  25      0.20516588902231
  26      0.07489526282253
  27      0.15731321876535
  28    0.0014152696795918
  29     0.002693879420138
  30    0.0011346816152266
  31    0.0015015648881802
  32     0.002677763265944
  33    -8.4969905535212e-05
  34    0.0025560188723779
  35    0.00078355927130418
  36    -0.0021468852439014
  37    -0.0050308318718064
  38    -0.0043851370982837
  39     0.048238421464553
  40     0.033333376394862
  41    -0.0034205651771985
  42     0.044956452254522
  43     0.031512883264546
  44    0.0016589482503673
  45    -0.00089004613570538
  46    0.0018342319692747
  47     0.000573495505445
  48    -0.0010286697008934
  49    -0.00029341431139903
  50    -0.0013771076693085
  51    0.0029804371293804
  52     -0.00953544648244
  53    -0.00096972526469889
  54    0.0015984246859596
  55    0.0015279986545146
  56    0.00055817660289488
  57    -0.0032584030680083
  58    -0.0023706943652378
  59    -0.00053905968224485
  60      0.00595489692033
  61    0.0075472618110137
  62    0.0035823165202805
  63    9.4506022198468e-05
  64     0.010691028301292
  65    0.0062016448721895
  66    -0.00013352115534625
  67    -0.00038090324409392
  68    0.00012974084703065
  69    0.00061702391209374
  70    -0.00012322249385813
  71    -0.0016447642763153
  72    0.00097679169179135
  73    -0.00092290823254484
  74     0.001345149276487
  75    0.0032860889845827
  76    -9.1296651700989e-05
  77    -0.00079190208766517
  78    -0.00029078166624584
  79    0.00032458993362068
  80    -0.00068698044765377
  81    0.00055069852371906
  82    0.0013460497483553
  83    -7.3534447131725e-05
  84    0.00051837419521984
  85    -6.2503404007518e-05
  86    -0.0043663792987294
  87    -0.0032902985981713
  88     0.024587758292833
  89     0.012939116378425
  90    0.0085867763613621
  91    -0.063272902184062
  92     -0.03322654980349
  93    0.0051871896556214
  94    -0.045119625196712
  95    -0.022448538169909
  96    -0.0051002968023089
  97    0.00055018325145512
  98    -0.0028881046585281
  99    -0.0026663088442317
 100    -0.00071405980399322
 101    -0.0011680739428563
 102    0.0059740478119299
 103    -0.0089880177779677
 104    -0.0073141982028296
 105    -0.019822047625471
 106     0.014606786364239
 107    -0.0073963986431137
 108     0.050474896915923
 109    -0.037337740355799
 110     0.019462225048941
 111     0.034565514731171
 112     -0.02804904423431
 113     0.010881348199443
 114    -0.0047471490672928
 115    0.00031869260868735
 116    -0.00035088539139723
 117    0.0012825873522911
 118    -0.0024090836562998
 119    0.0017629732566972
 120    -0.0088650188053469
 121     0.013863996420991
 122    0.0088378912504539
 123     0.015360876515294
 124     0.016962433355291
 125    0.0038943743415636
 126    -0.038854259486247
 127    -0.042410630406728
 128    -0.010380192188998
 129    -0.026953657435896
 130    -0.032589160572388
 131    -0.008120140092013
 132    0.0016172111479351
 133    0.00036101665256263
 134    -0.0013447341879994
 135    -0.00075168260519504
 136     -0.00249805315326
 137    -0.00026222084235971
 138    0.0012863959929302
 139    -0.002356312724209
 140    -0.0072274031527408
 141    0.0019467691160708
 142    -5.6857456046867e-05
 143    -0.0017201653766481
 144    -0.0053375664763819
 145    0.00033628500042799
 146    0.0047381416426805
 147    -0.0023241530283686
 148    0.0001406379901572
 149    0.0049002850375511
 150    1.2474873444189e-05
 151    -0.00040099174237414
 152    -3.4524937402139e-05
 153    0.00017108415578601
 154    -4.6442782458122e-05
 155    -5.798885018722e-05
 156    0.00024764357239952
 157    -0.00065019588489433
 158    -0.00022645300734523
 159    0.0005039099728562
 160    0.00037815017087538
 161    0.00070952688463422
 162    -0.0014233294372617
 163    -0.00075229336981606
 164    -0.0016312070639103
 165    -0.00096871692021559
 166    -0.0030877638093416
 167    -0.0033102197121063
 168    -7.4745359650379e-05
 169    6.0681941409591e-05
 170    5.819763786978e-05
 171    7.1830783847637e-05
 172    7.353687517195e-05
 173    0.00022009675399398
 174    -0.0010356473412764
 175    0.0021358333111994
 176    0.0063921909881026
 177    -0.0021527519626193
 178    -0.00058568964437238
 179    0.00070692267333741
 180    0.0060135439893537
 181    0.0019022654703622
 182    -0.0018391422560038
 183    0.0019891551509557
 184    0.0010223892783427
 185    -0.0010040231756935
 186    0.00015426121885858
 187    0.00016459778513984
 188    7.3453895082547e-05
 189    -0.00024453204112914
 190    -0.00021916455149724
 Sym= A
 Ene=               2
 Spin= Alpha
 Occup=    1.00000
   1    0.00026147161310371
   2    0.0010713762965301
   3    -0.0029681064513806
   4    0.0053296371901477
   5    0.0047649753728127
   6    -0.00071679756719801
   7    0.0051648313322866
   8    -0.0020494229144043
   9    0.0012133211813517
  10    -0.011288402679311
  11    0.0052906441325969
  12    -0.0031909940524246
  13     0.017058375766692
  14    -0.0049806086993544
  15    -0.0021841842666359
  16    -0.022998926761912
  17     0.013843366715147
  18      0.41456076822934
  19       0.2295106657379
  20     -0.14216520209307
  21      0.05533451812542
  22     -0.60147779809987
  23      0.19658703611262
  24      0.10853115660179
  25    -0.067111710525726
  26     0.025837527327115
  27     -0.28470039256307
  28    0.00017350627930008
  29    0.0025675912803711
  30    0.0011569783616939
  31    0.0026994073595983
  32    -0.0037675570237366
  33    -0.001249520328535
  34    -0.0057157487149925
  35    0.0012721614003069
  36    -0.0038029583303754
  37    -0.0047487197943592
  38    -0.009360784775961
  39    -0.085410759151578
  40     0.046374810176308
  41    -0.0087455744558281
  42    -0.087823565883542
  43      0.04613238342331
  44    0.0018468842576859
  45    -0.0014542129501121
  46    -0.0023211291924247
  47    0.00045363047235845
  48    0.0017695058120785
  49    -0.00044336949854395
  50    -0.0019686545465058
  51    0.0047493450336806
  52    -0.012121031491036
  53    -0.010358683060289
  54    0.0024909226205922
  55    -0.0029843725239424
  56    0.0009814309783419
  57    -0.0051740549634064
  58    0.0048061477529373
  59    -0.0010411957717093
  60    0.0091115864488031
  61    -0.014259094862077
  62    0.0060403414539133
  63    -0.0038658381870404
  64    -0.0074751156364342
  65    0.0043250750438579
  66    -0.00061875871052519
  67    -0.00070933079516948
  68    0.00026449561733106
  69    0.00089549110287524
  70    0.00031853645538771
  71    -0.0016195103773891
  72    0.0014503555852741
  73    0.0011310157632608
  74     0.002482405582313
  75    -0.0054314149741862
  76    -0.00021095792588638
  77    -0.0010791104198564
  78    0.00029079040015227
  79    0.00019206486159389
  80    0.0011359881864933
  81    0.00072139013215801
  82    -0.0022275388990479
  83    -0.0027209880027094
  84     0.014029425990165
  85     -0.02065252373502
  86    -0.030685563639288
  87     0.010024407703545
  88     0.022126604105915
  89    -0.021958810379571
  90    -0.025424235695795
  91    -0.056684817925589
  92     0.055920117661737
  93    -0.017573028030811
  94    -0.042494658223126
  95     0.046877070199085
  96    -0.0005726558750299
  97    -0.0032017862594811
  98    -0.0017708711466091
  99    -0.0011459212129159
 100    0.00081781288276977
 101    -0.0010098409665499
 102    0.0048712248518327
 103    -0.0089552194882732
 104    -0.0058355860871411
 105    -0.0075847531295711
 106    0.0068493174443878
 107    0.0036476226335113
 108     0.019393735177148
 109    -0.017979070372895
 110    -0.0089784398540342
 111     0.014504967175349
 112    -0.012001944526858
 113    -0.0097896574594523
 114    -0.00051139746195213
 115    0.00023637930300773
 116    -0.00041046969635341
 117    0.0001877191165629
 118    -0.0011841931723207
 119    0.0032605369449795
 120    -0.016418437398953
 121     0.025944943468787
 122     0.032828650987906
 123    -0.0034031355572172
 124     0.035119627806531
 125    -0.017736926997595
 126    0.0086409781781221
 127    -0.089280935642239
 128     0.045011034645608
 129    0.0038103820610569
 130    -0.071643488943006
 131     0.033433917637412
 132    -0.00014463728325287
 133    -5.6502450852969e-06
 134    0.0018601109995404
 135    0.0018009209195286
 136    0.0027855813422011
 137    -8.3463132898414e-05
 138    0.00026806850325193
 139    -0.0012615426795197
 140    0.0013738535794995
 141    0.00014181968151931
 142    -0.0015239269606686
 143    0.00015032152782826
 144    -0.0004603986308643
 145    0.0036407498277575
 146    -0.00015311550618728
 147    -0.00056483738278271
 148    0.0064792269610357
 149    -0.0021755126416562
 150    -0.00015163465977018
 151    -5.4921144679909e-05
 152    0.00015946820221223
 153    -6.4228151668905e-05
 154    -0.00026734585549865
 155    0.0002586207684183
 156    -0.0012343320429353
 157     0.002462442387689
 158    0.0080562773800479
 159    -0.0028767979789254
 160    -0.00066678658958688
 161    0.00047643268792444
 162    0.0078637136874002
 163    0.0013409192308546
 164    -0.0010465735373927
 165    0.0054834383757008
 166    0.0025945198764832
 167    0.0011323833080598
 168    0.0001086852016608
 169    -7.0282712966839e-05
 170    5.2889517348479e-05
 171    -0.00035010962708639
 172    1.7995517662265e-05
 173    -0.00050827331145771
 174    0.0020619470211654
 175    -0.006116183632954
 176    -0.0045576716625241
 177    0.0037204708856941
 178    0.0015511878512728
 179    0.00085705454442885
 180    -0.010117147112719
 181    -0.0045513156222715
 182    -0.0019497002164606
 183    -0.0065232420218775
 184    -0.0030621653415632
 185    -0.0050664943495315
 186    -0.00036350014598718
 187    6.6651841567315e-05
 188    -2.5628362347924e-05
 189    0.00057310669545002
 190    0.0006126921888913
 Sym= A
 Ene=               3
 Spin= Alpha
 Occup=    1.00000
   1    0.00062467616515959
   2    0.0023074467779224
   3    -0.0075965391510268
   4    0.0066638299669618
   5    -0.010559239084176
   6     0.010724521754241
   7     -0.00577439945874
   8    -0.0064676689822717
   9    -0.022540107242248
  10     0.010872655945206
  11     0.012786807183861
  12     0.035334668812641
  13    -0.022758850844474
  14    -0.024576202709386
  15    -0.0095527839616029
  16     0.013026679239396
  17     0.021946155149613
  18     0.029002068705236
  19      0.59929235432603
  20     -0.36023776386976
  21     -0.10324966067809
  22      0.32031337082044
  23     0.011466358504261
  24      0.28407426711357
  25     -0.17051293946379
  26    -0.045384549951717
  27      0.15047526858677
  28    -0.0025838652076991
  29    0.0047947219861584
  30    -0.0016105296901282
  31    0.0032957066995056