[Molden Format]
made by pyscf v[2.4.0]
[Atoms] (AU)
Fe   1   26     3.17068844873907     0.00098706064664     0.12237737881307
O   2   8     0.00000000000000     0.00000000000000    -0.89004350580623
Fe   3   26    -3.17068844873907    -0.00098706064664     0.12237737881307
Cl   4   17     3.53383895113107    -2.07485195383062     3.76228752659000
Cl   5   17     5.54152580550813    -1.85590924879884    -2.78672786652360
Cl   6   17     4.48169216485503     3.92976278472880    -0.95330240907949
Cl   7   17    -3.53383895113107     2.07485195383062     3.76228752659000
Cl   8   17    -5.54152580550813     1.85590924879884    -2.78672786652360
Cl   9   17    -4.48169216485503    -3.92976278472880    -0.95330240907949
[GTO]
1 0
 s    6 1.00
              61132.62  0.0017661109761772
              9179.342   0.013530379817491
              2090.857   0.066731279099873
              589.2479    0.23148229687757
              188.7543    0.47970579352933
              64.44629    0.35019759527624
 s    6 1.00
               1259.98   0.002438014026839
              299.8761   0.032240480354921
              96.84917    0.12657240139338
               36.3102  -0.031399020345658
              14.72996   -0.62075930683366
              6.066075   -0.45029140495706
 s    6 1.00
              50.43485  -0.0038732559842369
              16.83929   0.071965979707118
              7.192086    0.25565909895954
               3.05342   -0.28828369882676
              1.273643   -0.73428219701167
              0.504091   -0.20493529916597
 s    3 1.00
              1.950316   0.056948690305124
              0.736721    0.28829150154463
              0.114177    -1.1381590060981
 s    1 1.00
              0.041148                   1
 p    6 1.00
               1259.98  0.0040280186654072
              299.8761   0.031446467387857
              96.84917    0.13683168863389
               36.3102    0.34872357103281
              14.72996    0.46179306164054
              6.066075    0.20430578302906
 p    6 1.00
              50.43485  -0.0070171278804837
              16.83929  -0.028776599509875
              7.192086   0.061813828947182
               3.05342     0.3954945932639
              1.273643    0.49890589150259
              0.504091    0.17912509694913
 p    3 1.00
              1.950316   -0.45937961634956
              0.736721    0.28521391015091
              0.114177    0.90764853230368
 p    1 1.00
              0.041148                   1
 d    3 1.00
              23.14994   0.088769354792419
              6.122368    0.38963192103518
              1.846601    0.70148163787111
 d    1 1.00
              0.504361                   1
 f    1 1.00
                   0.8                   1

2 0
 s    6 1.00
             5484.6717   0.001831099805527
             825.23495   0.013950098518422
             188.04696    0.06844509273075
               52.9645    0.23271427528445
              16.89757    0.47019295006289
             5.7996353    0.35852086192309
 s    3 1.00
             15.539616   -0.11077750382508
             3.5999336   -0.14802630511126
             1.0137618     1.1307670390447
 s    1 1.00
             0.2700058                   1
 p    3 1.00
             15.539616   0.070874299543311
             3.5999336    0.33975279781076
             1.0137618    0.72715859531445
 p    1 1.00
             0.2700058                   1
 d    1 1.00
                   0.8                   1

3 0
 s    6 1.00
              61132.62  0.0017661109761772
              9179.342   0.013530379817491
              2090.857   0.066731279099873
              589.2479    0.23148229687757
              188.7543    0.47970579352933
              64.44629    0.35019759527624
 s    6 1.00
               1259.98   0.002438014026839
              299.8761   0.032240480354921
              96.84917    0.12657240139338
               36.3102  -0.031399020345658
              14.72996   -0.62075930683366
              6.066075   -0.45029140495706
 s    6 1.00
              50.43485  -0.0038732559842369
              16.83929   0.071965979707118
              7.192086    0.25565909895954
               3.05342   -0.28828369882676
              1.273643   -0.73428219701167
              0.504091   -0.20493529916597
 s    3 1.00
              1.950316   0.056948690305124
              0.736721    0.28829150154463
              0.114177    -1.1381590060981
 s    1 1.00
              0.041148                   1
 p    6 1.00
               1259.98  0.0040280186654072
              299.8761   0.031446467387857
              96.84917    0.13683168863389
               36.3102    0.34872357103281
              14.72996    0.46179306164054
              6.066075    0.20430578302906
 p    6 1.00
              50.43485  -0.0070171278804837
              16.83929  -0.028776599509875
              7.192086   0.061813828947182
               3.05342     0.3954945932639
              1.273643    0.49890589150259
              0.504091    0.17912509694913
 p    3 1.00
              1.950316   -0.45937961634956
              0.736721    0.28521391015091
              0.114177    0.90764853230368
 p    1 1.00
              0.041148                   1
 d    3 1.00
              23.14994   0.088769354792419
              6.122368    0.38963192103518
              1.846601    0.70148163787111
 d    1 1.00
              0.504361                   1
 f    1 1.00
                   0.8                   1

4 0
 s    6 1.00
               25180.1  0.0018330003117875
               3780.35   0.014034002387139
               860.474   0.069097011753181
               242.145    0.23745204038983
               77.3349    0.48303408216255
                26.247    0.33985605780843
 s    6 1.00
               491.765  -0.0022974019889149
               116.984  -0.030714026589855
               37.4153   -0.11252809741822
               13.7834   0.045016038971443
               5.45215    0.58935351021719
               2.22588    0.46520640274012
 s    3 1.00
               3.18649    -0.2518312880459
               1.14427   0.061589315011948
              0.420377     1.0601854225489
 s    1 1.00
              0.142657                   1
 p    6 1.00
               491.765  0.0039894005477754
               116.984   0.030318004162896
               37.4153    0.12988001783353
               13.7834     0.3279510450302
               5.45215    0.45352706227276
               2.22588    0.25215403462269
 p    3 1.00
               3.18649   -0.01429901271425
               1.14427    0.32357228771069
              0.420377    0.74350766110453
 p    1 1.00
              0.142657                   1
 d    1 1.00
                  0.75                   1

5 0
 s    6 1.00
               25180.1  0.0018330003117875
               3780.35   0.014034002387139
               860.474   0.069097011753181
               242.145    0.23745204038983
               77.3349    0.48303408216255
                26.247    0.33985605780843
 s    6 1.00
               491.765  -0.0022974019889149
               116.984  -0.030714026589855
               37.4153   -0.11252809741822
               13.7834   0.045016038971443
               5.45215    0.58935351021719
               2.22588    0.46520640274012
 s    3 1.00
               3.18649    -0.2518312880459
               1.14427   0.061589315011948
              0.420377     1.0601854225489
 s    1 1.00
              0.142657                   1
 p    6 1.00
               491.765  0.0039894005477754
               116.984   0.030318004162896
               37.4153    0.12988001783353
               13.7834     0.3279510450302
               5.45215    0.45352706227276
               2.22588    0.25215403462269
 p    3 1.00
               3.18649   -0.01429901271425
               1.14427    0.32357228771069
              0.420377    0.74350766110453
 p    1 1.00
              0.142657                   1
 d    1 1.00
                  0.75                   1

6 0
 s    6 1.00
               25180.1  0.0018330003117875
               3780.35   0.014034002387139
               860.474   0.069097011753181
               242.145    0.23745204038983
               77.3349    0.48303408216255
                26.247    0.33985605780843
 s    6 1.00
               491.765  -0.0022974019889149
               116.984  -0.030714026589855
               37.4153   -0.11252809741822
               13.7834   0.045016038971443
               5.45215    0.58935351021719
               2.22588    0.46520640274012
 s    3 1.00
               3.18649    -0.2518312880459
               1.14427   0.061589315011948
              0.420377     1.0601854225489
 s    1 1.00
              0.142657                   1
 p    6 1.00
               491.765  0.0039894005477754
               116.984   0.030318004162896
               37.4153    0.12988001783353
               13.7834     0.3279510450302
               5.45215    0.45352706227276
               2.22588    0.25215403462269
 p    3 1.00
               3.18649   -0.01429901271425
               1.14427    0.32357228771069
              0.420377    0.74350766110453
 p    1 1.00
              0.142657                   1
 d    1 1.00
                  0.75                   1

7 0
 s    6 1.00
               25180.1  0.0018330003117875
               3780.35   0.014034002387139
               860.474   0.069097011753181
               242.145    0.23745204038983
               77.3349    0.48303408216255
                26.247    0.33985605780843
 s    6 1.00
               491.765  -0.0022974019889149
               116.984  -0.030714026589855
               37.4153   -0.11252809741822
               13.7834   0.045016038971443
               5.45215    0.58935351021719
               2.22588    0.46520640274012
 s    3 1.00
               3.18649    -0.2518312880459
               1.14427   0.061589315011948
              0.420377     1.0601854225489
 s    1 1.00
              0.142657                   1
 p    6 1.00
               491.765  0.0039894005477754
               116.984   0.030318004162896
               37.4153    0.12988001783353
               13.7834     0.3279510450302
               5.45215    0.45352706227276
               2.22588    0.25215403462269
 p    3 1.00
               3.18649   -0.01429901271425
               1.14427    0.32357228771069
              0.420377    0.74350766110453
 p    1 1.00
              0.142657                   1
 d    1 1.00
                  0.75                   1

8 0
 s    6 1.00
               25180.1  0.0018330003117875
               3780.35   0.014034002387139
               860.474   0.069097011753181
               242.145    0.23745204038983
               77.3349    0.48303408216255
                26.247    0.33985605780843
 s    6 1.00
               491.765  -0.0022974019889149
               116.984  -0.030714026589855
               37.4153   -0.11252809741822
               13.7834   0.045016038971443
               5.45215    0.58935351021719
               2.22588    0.46520640274012
 s    3 1.00
               3.18649    -0.2518312880459
               1.14427   0.061589315011948
              0.420377     1.0601854225489
 s    1 1.00
              0.142657                   1
 p    6 1.00
               491.765  0.0039894005477754
               116.984   0.030318004162896
               37.4153    0.12988001783353
               13.7834     0.3279510450302
               5.45215    0.45352706227276
               2.22588    0.25215403462269
 p    3 1.00
               3.18649   -0.01429901271425
               1.14427    0.32357228771069
              0.420377    0.74350766110453
 p    1 1.00
              0.142657                   1
 d    1 1.00
                  0.75                   1

9 0
 s    6 1.00
               25180.1  0.0018330003117875
               3780.35   0.014034002387139
               860.474   0.069097011753181
               242.145    0.23745204038983
               77.3349    0.48303408216255
                26.247    0.33985605780843
 s    6 1.00
               491.765  -0.0022974019889149
               116.984  -0.030714026589855
               37.4153   -0.11252809741822
               13.7834   0.045016038971443
               5.45215    0.58935351021719
               2.22588    0.46520640274012
 s    3 1.00
               3.18649    -0.2518312880459
               1.14427   0.061589315011948
              0.420377     1.0601854225489
 s    1 1.00
              0.142657                   1
 p    6 1.00
               491.765  0.0039894005477754
               116.984   0.030318004162896
               37.4153    0.12988001783353
               13.7834     0.3279510450302
               5.45215    0.45352706227276
               2.22588    0.25215403462269
 p    3 1.00
               3.18649   -0.01429901271425
               1.14427    0.32357228771069
              0.420377    0.74350766110453
 p    1 1.00
              0.142657                   1
 d    1 1.00
                  0.75                   1

[5d]
[7f]
[9g]

[MO]
 Sym= A
 Ene=               0
 Spin= Alpha
 Occup=    1.00000
   1    -0.063921134407081
   2     -0.25370342575161
   3      0.61638818304017
   4    0.00018207475608036
   5    -0.00044507714571112
   6     -0.13490226799865
   7    -0.0021393016271199
   8    -0.052047610519531
   9      0.38446906925066
  10    0.0061621311142846
  11      0.14920786176584
  12    -0.013110902004671
  13    -0.0001271748934094
  14    -0.0013092602230513
  15    0.0046569099822577
  16    0.00028854788102841
  17    0.0009342095218482
  18    -0.0029475202865726
  19    0.0055275221662379
  20    0.00033947573596195
  21    0.0064389064592761
  22    0.00027522193426537
  23    -0.0019363279435074
  24    0.0044506481301767
  25    0.00041814136553737
  26    0.0044951000271525
  27    0.00025168401701417
  28    -0.0003775959234436
  29    -0.00022569732060224
  30    0.00057995164860258
  31    8.8826230221409e-05
  32    -9.8999916595528e-05
  33    0.00034737972879535
  34    0.00030302137727083
  35    -2.1665477911518e-08
  36    -5.3244007073638e-07
  37    1.3655939900036e-06
  38    -0.0049262199361613
  39    -0.00011635277524599
  40    1.8629180294049e-08
  41    0.0019213885389707
  42     0.000114113409685
  43    1.4319909780959e-07
  44    -2.8982604239197e-07
  45    0.00016040528862778
  46    -6.5336686262261e-06
  47    4.9496359070302e-07
  48    1.8839814295178e-08
  49     0.063921132244844
  50       0.2537034641286
  51     -0.61638806338963
  52    -0.00018105118892467
  53    0.00044520516151508
  54     -0.13490228830579
  55    -0.0021392996176803
  56     0.052047627158242
  57      0.38446880092161
  58    0.0061621340716053
  59     -0.14920776118648
  60    -0.013111831520667
  61    -0.00012714812574139
  62    0.0013096952821729
  63    0.0046572293000922
  64    0.00028858152006816
  65    -0.00093422813843357
  66    0.0029474755223613
  67     0.005527345555863
  68    0.00033948312469927
  69    -0.0064387464691041
  70    -0.00027522565550324
  71    0.0019365188563882
  72     0.004451122416545
  73    0.00041812731830247
  74    -0.0044956285545874
  75    -0.00025167692320698
  76    0.00037731861872297
  77    -0.00022575120779019
  78    0.0005799352794003
  79    -8.8410848656952e-05
  80    9.8986716382704e-05
  81    0.00034710761394879
  82    0.00030303895420686
  83    -0.0039751367095862
  84     0.018337657851656
  85    -0.035337304224875
  86    -0.018222195443542
  87    -0.00029497390983775
  88    6.9035129125977e-06
  89    -0.00070047804416458
  90    0.00072477627880389
  91    8.5364854421392e-06
  92    0.0017835110103912
  93    0.0012247407409338
  94    0.00051650568887488
  95    -0.00016268153604022
  96    -0.00050213366386712
  97    -0.00046888024941453
  98    0.00048918994855205
  99    7.9060611382236e-05
 100    0.00026586180815508
 101    -0.007382303525744
 102      0.03409249432582
 103    -0.065350125333543
 104    -0.033040878382163
 105    -0.0012151872976328
 106     0.001749532205757
 107    0.0011609928238923
 108    0.0028874657286031
 109    -0.0043565932715388
 110    -0.0028048494689327
 111    0.0014378061807122
 112    -0.0012369646621209
 113    0.00018360524525121
 114    -7.0369223041102e-05
 115    0.0011982303225708
 116    -0.0007623896068004
 117    -0.00031025956896509
 118    0.00083384607245506
 119    -0.0074638769272898
 120     0.034524598155244
 121    -0.065923318925726
 122    -0.034727868388341
 123    -0.00038651609038434
 124    -0.0014812728548537
 125    -0.00087972739389477
 126    0.00084589570290991
 127    0.0035481037778468
 128    0.0023271190790941
 129     0.001319862637997
 130    0.00060350114827599
 131    0.0015928392721316
 132    0.0006811841649383
 133    0.00025419620070885
 134    0.00038323453707024
 135    0.00085627463615779
 136    -0.00096369301157902
 137    0.0039751374864619
 138    -0.018337661594002
 139       0.0353373119834
 140     0.018222151721252
 141    -0.00029497459213904
 142    6.906317449013e-06
 143    0.00070048112260213
 144    0.00072477732829635
 145    8.5280708443632e-06
 146    -0.0017835162659569
 147     0.001224785719035
 148    0.0005165130246238
 149    0.0001626482278689
 150    0.00050215718503873
 151    -0.00046891637761556
 152    0.00048921023232903
 153    -7.9059164477899e-05
 154    -0.00026588123149699
 155    0.0073823012087488
 156    -0.034092497659115
 157     0.065350051263705
 158     0.033041067695655
 159    -0.0012151889040646
 160    0.0017495301702634
 161    -0.0011609923360777
 162    0.0028874710577849
 163    -0.0043565831580011
 164    0.0028048471481948
 165    0.0014378934224161
 166    -0.0012370174236157
 167    -0.00018359062503594
 168    7.034892367201e-05
 169    0.0011982409625972
 170    -0.00076238568065074
 171    0.00031028017523438
 172    -0.00083386116120856
 173    0.0074638757751593
 174    -0.034524602180739
 175     0.065923275072925
 176     0.034728020383518
 177    -0.00038652104065229
 178    -0.0014812725268829
 179    0.00087972646377897
 180    0.00084591633155141
 181    0.0035481021111744
 182    -0.0023271136000655
 183    0.0013199055209187
 184    0.00060358095867441
 185    -0.0015928627970437
 186    -0.00068119655340418
 187    0.00025419740692398
 188    0.00038322284155991
 189    -0.00085626496491467
 190    0.00096372915350194
 Sym= A
 Ene=               1
 Spin= Alpha
 Occup=    1.00000
   1    -0.062042961944096
   2     -0.24681047581247
   3      0.59263391504276
   4     0.023833590641253
   5    0.0062312360228361
   6     0.036641264659258
   7      0.00186264020192
   8    -0.0043504100161693
   9     -0.10549863832287
  10    -0.0053582501865184
  11     0.013453637814435
  12      0.01029412621713
  13     0.000147337575602
  14      0.00689332572797
  15    -0.0055977575427056
  16    -0.00098414146539033
  17    0.0013920101768974
  18    0.0058606068885485
  19    -0.0085441486233277
  20    0.00014386738875973
  21    -0.013914151335138
  22    0.00017748664925525
  23    0.0044056258645907
  24    -0.0067150225192958
  25    0.00027343560960998
  26    -0.010999762192617
  27    0.00023509767248331
  28    -0.0020227012771701
  29    -0.0015940834821401
  30    0.00075858730689588
  31    0.0023229559911956
  32    -0.00022820600990089
  33    0.0031797706590843
  34    0.00034220234060078
  35      0.11394257033616
  36     -0.24211753645666
  37     -0.28323115680135
  38    -6.6357093170018e-08
  39    8.7433724264719e-10
  40    -0.007035358110693
  41    6.2490035164877e-07
  42    -1.6782067778665e-09
  43    -0.011154925846762
  44    0.0044665971901767
  45    4.1347930544841e-07
  46    -5.341157095663e-11
  47     -0.01012508529398
  48    0.00012792582127118
  49    -0.062042957617378
  50      -0.2468105086396
  51      0.59263375652745
  52     0.023832661823141
  53    0.0062306997925058
  54    -0.036641248011954
  55    -0.0018626413559889
  56    -0.004350412937163
  57      0.10549888073405
  58    0.0053582478037428
  59     0.013453555462897
  60    -0.010293328982126
  61    -0.00014735457182614
  62     0.006893085155811
  63    0.0055973660803272
  64    0.00098413718884352
  65    0.0013920465019451
  66    0.0058607091787384
  67    0.0085441543159098
  68    -0.00014386892858321
  69    -0.013914291337036
  70    0.00017748405324513
  71     0.004405363747325
  72    0.0067149091862314
  73    -0.00027343134757599
  74    -0.010999343085297
  75    0.00023510284156946
  76    -0.0020226629213359
  77    0.0015937287971548
  78    -0.00075855979390702
  79    0.0023229842302681
  80    -0.00022818801283749
  81    -0.0031794950464582
  82    -0.00034217709962054
  83    -0.0058661393358719
  84     0.027386195943854
  85    -0.050641457767982
  86    -0.031202516783925
  87    -0.00041279529659553
  88    0.00011824052709462
  89    -0.0012234655733777
  90    0.00074240349389392
  91    -1.1991684860091e-05
  92    0.0027448324409429
  93     0.001862169237202
  94    -0.00019697902103158
  95    0.00060523987762401
  96    -0.00087070522374127
  97    -0.00021913142156468
  98    0.0010678543776888
  99    0.00019035658642217
 100    8.6633499301095e-05
 101    -0.0081212819292269
 102     0.037536516538224
 103    -0.071446229077519
 104    -0.035492610714594
 105    -0.0015311711320004
 106    0.0021364483932806
 107    0.0015216684344359
 108    0.0031681722022832
 109    -0.0052148972259712
 110    -0.0034016534660345
 111    0.0017912883558436
 112    -0.0012116108937255
 113    -0.00075105432085367
 114    -0.0004463042537833
 115    0.0014101923003181
 116    -0.001215627911883
 117    -0.00028910771013208
 118    0.0009710631991253
 119    -0.0072783972624921
 120     0.033705817661161
 121    -0.063835184615647
 122     -0.03288765648293
 123    -0.00050367243055959
 124    -0.0017506823722236
 125    -0.00090368048793943
 126    0.00079974007628727
 127    0.0039512755674071
 128    0.0025677673437874
 129    0.0013214897893517
 130    3.7237253541794e-05
 131    0.00064005801371589
 132    0.00082302404430093
 133    0.00015283844578619
 134    0.00062056491825158
 135    0.0010395270691194
 136    -0.00091130216624449
 137    -0.0058661392457507
 138     0.027386197308503
 139    -0.050641451573815
 140    -0.031202528684584
 141     0.000412796241869
 142    -0.0001182405155967
 143    -0.001223466082338
 144    -0.00074240669645771
 145    1.1992777755458e-05
 146    0.0027448357384393
 147    -0.0018622253878288
 148    0.00019698406907544
 149    0.00060526551115634
 150    -0.00087070681144324
 151    0.00021915300188474
 152    -0.0010678536884122
 153    0.00019035022386275
 154    8.6644486660311e-05
 155    -0.0081212820709404
 156     0.037536523023831
 157    -0.071446210608045
 158     -0.03549267837956
 159    0.0015311779434738
 160    -0.0021364526038562
 161    0.0015216737847178
 162    -0.0031681954265292
 163    0.0052149113375348
 164    -0.0034016715498403
 165    -0.0017913417404372
 166    0.0012116211513894
 167    -0.00075105145247329
 168    -0.00044628876951028
 169    -0.0014102333772772
 170    0.0012156411440563
 171    -0.00028912927874032
 172    0.00097109414331249
 173    -0.007278397195346
 174     0.033705822655333
 175    -0.063835166452358
 176     -0.03288773469222
 177    0.00050367542673316
 178    0.0017506874561004
 179    -0.00090368004426138
 180    -0.00079975032844735
 181    -0.003951294180778
 182    0.0025677653440255
 183    -0.0013215506547812
 184    -3.7278306385043e-05
 185    0.00064006182976704
 186    0.00082304309729424
 187    -0.00015284779521659
 188    -0.00062056170631596
 189    0.0010395307134041
 190    -0.00091134179934981
 Sym= A
 Ene=               2
 Spin= Alpha
 Occup=    1.00000
   1     -0.03904547247861
   2     -0.15470344049963
   3      0.37613422075542
   4     0.012086715671577
   5     0.016917341491346
   6      0.21115727404948
   7    -0.0081290064055385
   8     0.056768720990274
   9     -0.60373860037659
  10     0.022952468225927
  11     -0.16180202141106
  12     0.010538394953366
  13    -0.0012878091129984
  14    0.0054847535290093
  15    -0.0086668417014677
  16    0.00017217267332311
  17    -0.0029729097745493
  18    0.0020215930931586
  19    -0.0023083152740686
  20    -0.00027577178256695
  21    -0.0045720975578249
  22    0.0001006861923925
  23    0.0010337971446746
  24    -0.00044420692180259
  25    3.253436432349e-05
  26    -0.0023612334067893
  27    0.00022778916929681
  28    -0.00048495249122377
  29    -0.0004565141200909
  30    0.00079755830832576
  31    9.7809991547089e-05
  32    -0.00048768319702844
  33    0.00052834469996778
  34    0.00035795803880894
  35    -1.4605263260648e-08
  36    -3.5677548588803e-07
  37    9.1624980715247e-07
  38    0.0030515760902689
  39    -0.00010445485167616
  40    1.2581944469143e-08
  41    0.0015785357861185
  42    0.0004494995621509
  43    9.7717127929053e-08
  44    -1.9350115498325e-07
  45    0.00022780457741569
  46    3.9520570309387e-05
  47    3.3159880795564e-07
  48    1.261462333159e-08
  49     0.039045471010107
  50      0.15470346602915
  51     -0.37613414058602
  52    -0.012086032305286
  53    -0.016917255325117
  54      0.21115726005163
  55    -0.0081290050349068
  56    -0.056768709844082
  57     -0.60373878088659
  58     0.022952470266198
  59      0.16180208870108
  60     0.010537766623237
  61    -0.0012877907967367
  62    -0.0054844623292242
  63    -0.0086666255850488
  64    0.00017219528358104
  65    0.0029728968663732
  66    -0.0020216231924446
  67    -0.0023084312112221
  68    -0.00027576700701014
  69    0.0045722034723892
  70    -0.0001006885277855
  71    -0.0010336676382877
  72    -0.00044389088613044
  73    3.2525235855087e-05
  74    0.0023608784342282
  75    -0.00022778455933332
  76    0.00048476909850592
  77    -0.00045654668768117
  78    0.00079754781811213
  79    -9.7535587226043e-05
  80    0.00048767441414983
  81    0.00052816222549539
  82    0.00035796963155826
  83    -0.0044318247188063
  84     0.020510781319858
  85    -0.038883588558526
  86    -0.022322756731494
  87    -0.00026760042429992
  88    0.0001517910790392
  89    -0.0010311258095548
  90    0.00080398014379013
  91    -0.0001534221977537
  92    0.0022535736390673
  93    -0.00048260626579094
  94    -0.00026264145179127
  95    0.0014119746762157
  96    -0.00080146632950255
  97    0.00035090635105855
  98    0.00093954032794312
  99    0.00032638186792065
 100    -0.00020767615541833
 101    -0.008791673067424
 102     0.040751822220763
 103    -0.077037006170494
 104    -0.043133009981926
 105    -0.0016304147309208
 106    0.0022245363447895
 107    0.0015889299240932
 108    0.0039073771070054
 109    -0.0053994706424891
 110    -0.0035532992390242
 111    0.0014779904706665
 112    -0.0025659593432446
 113    -0.0019664498482254
 114    -0.00092320498154889
 115      0.00141975456186
 116    -0.0014788185012473
 117    0.00010961879213523
 118    0.00085817328396342
 119    -0.0074529751792787
 120       0.0344951339229
 121    -0.065625183242659
 122    -0.035731837327243
 123    -0.00036528986442563
 124    -0.0015975945883953
 125    -0.00087416061390848
 126    0.00098990176000174
 127    0.0036697614709623
 128    0.0024137922135392
 129    -0.00060143672522696
 130    0.0011268872598012
 131      0.00106827363775
 132    0.00055513188148357
 133    0.00011034086004853
 134    0.00076455854718538
 135    0.0013693101569722
 136    -0.0002629422238521
 137     0.004431825245845
 138    -0.020510783709607
 139     0.038883594367792
 140     0.022322725632336
 141    -0.00026760090247908
 142    0.00015179289351275
 143    0.0010311278006072
 144    0.00080398091688339
 145    -0.0001534277181227
 146    -0.0022535770755816
 147    -0.00048257598780005
 148    -0.00026263588029041
 149    -0.0014119957288958
 150    0.00080148150586185
 151    0.00035088239841403
 152    0.00093955330551702
 153    -0.00032638073515837
 154    0.00020766328765401
 155    0.0087916715471982
 156    -0.040751824403183
 157     0.077036957599558
 158     0.043133133965972
 159    -0.0016304158190568
 160    0.0022245349761005
 161    -0.001588929587872
 162    0.0039073808088107
 163    -0.0053994639095601
 164    0.0035532977956848
 165    0.0014780478421367
 166    -0.0025659938200059
 167     0.001966458009584
 168    0.0009231912650552
 169    0.0014197615204376
 170    -0.001478815655416
 171    -0.00010960505438429
 172    -0.00085818328015601
 173    0.0074529744325974
 174    -0.034495136584797
 175     0.065625154676706
 176     0.035731937250434
 177    -0.00036529321057174
 178    -0.001597594363903
 179    0.00087415998345817
 180     0.000989915709413
 181    0.0036697604733137
 182    -0.0024137884320505
 183    -0.00060140826647993
 184    0.0011269393717267
 185    -0.0010682899696513
 186    -0.00055514004654307
 187    0.00011034167379907
 188    0.00076455054577269
 189    -0.0013693034989626
 190    0.00026296627609095
 Sym= A
 Ene=               3
 Spin= Alpha
 Occup=    1.00000
   1    -0.0024642367711399
   2    -0.009610815298248
   3     0.024010082567019
   4    0.0043770435359546
   5    -0.0054278506757325
   6    -0.036037100248366
   7      0.10906427174966
   8      0.11558016032297
   9      0.10157741269844
  10     -0.30785391778474
  11     -0.32755126605182
  12    -0.0085998209133766
  13      0.02435717030866
  14     0.019440073151124
  15    0.0050232777694126
  16    -0.010095210747438
  17    -0.010240457185401
  18    -0.0061303707711421
  19    0.0071790975512469
  20    -0.013619125352657
  21    -0.007195408614057
  22    0.0086442665435423
  23    -0.0064764570689825
  24     0.008263524140706
  25    -0.015185303317706
  26    -0.0091039188057639
  27     0.010457437154267
  28    0.00017174883436346
  29    -0.0013700772942741
  30    -0.00047557499624107