[Molden Format]
made by pyscf v[2.2.1]
[Atoms] (AU)
Cr   1   24     1.56143912275337    -2.46507591990239    -1.82404491365355
Cr   2   24    -1.56139565905251     2.46513072196000     1.82399011159594
O   3   8     0.00002078698737     0.00002834589187    -0.00002645616574
N   4   7     5.12832174930954    -1.10581670549011    -0.60767356069801
H   5   1     6.65216855026694    -1.66292686427314    -1.66487895135981
H   6   1     5.63710405218294    -1.59213394419468     1.18765885421890
H   7   1     5.20084187906585     0.81566059741989    -0.65509245834172
N   8   7     1.71230729763415    -0.02251608677419    -4.99594076510539
H   9   1     0.29795878723855     1.27247165241550    -4.90823668593820
H   10   1     1.50271021425414    -0.85583806455427    -6.73026148236459
H   11   1     3.34039895052705     0.99863710888315    -5.18656310846864
N   12   7     1.41057094787259    -4.90763575303059     1.34785282752440
H   13   1     1.64193389675534    -6.79355407945465     0.97314659318890
H   14   1    -0.29048681014202    -4.81040367474334     2.24006056107205
H   15   1     2.72468082571676    -4.56691435331926     2.71738081369757
N   16   7    -2.00544350380280    -3.82433513431467    -3.04041437688297
H   17   1    -2.87205678671934    -5.05516478184926    -1.83221042023780
H   18   1    -2.03637832046193    -4.76397121413665    -4.73247136936628
H   19   1    -3.24475802163669    -2.37551046050250    -3.28123540501917
N   20   7     3.37923471211299    -5.33493873459111    -3.94755661599306
H   21   1     4.17102617885350    -4.76109883042731    -5.61685374703210
H   22   1     2.26176595533881    -6.82326057413281    -4.47610923358166
H   23   1     4.85383336053810    -6.19899521806112    -3.03922195969837
N   24   7    -5.12827828560868     1.10587339727385     0.60762064836653
H   25   1    -5.15408816501799    -0.81544705836782     0.54662784797006
H   26   1    -5.69743166898356     1.68113626520945    -1.14337690194197
H   27   1    -6.63528195761783     1.56841410187914     1.73267665553083
N   28   7    -1.71226383393328     0.02257088883181     4.99588785277390
H   29   1    -1.62991523860311     0.86667375415253     6.73575491620870
H   30   1    -0.22416876152653    -1.19157625647512     4.98456461383551
H   31   1    -3.28782110056328    -1.08746368536834     5.11339858210385
N   32   7     2.00548696750367     3.82438993637228     3.04035957482536
H   33   1     2.05186651577887     4.68410571893416     4.77402266739321
H   34   1     2.83712330958063     5.12208376337235     1.87805706574587
H   35   1     3.26582090902109     2.38241174030942     3.19051154350492
N   36   7    -1.41052748417173     4.90769055508820    -1.34790762958202
H   37   1    -1.75003190025884     6.78104976168840    -0.99229329828299
H   38   1    -2.65834387984003     4.49309409198925    -2.75785496783350
H   39   1     0.32278033988471     4.89894112313146    -2.18344058692784
N   40   7    -3.37919124841212     5.33499353664873     3.94750181393545
H   41   1    -2.26357064378777     6.83195331430581     4.45515784003860
H   42   1    -4.15358022727151     4.76963661305810     5.62761006813313
H   43   1    -4.86681766873998     6.18449345978121     3.04686590187224
[GTO]
1 0
 s    6 1.00
          51528.086349  0.0017695545768669
          7737.2103487   0.013556436258096
           1760.374847   0.067162645785071
          496.87706544    0.23295905918518
          161.46520598    0.47040576982722
          55.466352268    0.35733072606876
 s    3 1.00
          107.54732999   -0.10605255446629
          12.408671897    0.62543981484169
          5.0423628826    0.44878820793655
 s    3 1.00
          8.5461640165   -0.21819012081133
          1.3900441221    0.70422525667731
         0.56066602876    0.42488555412558
 s    1 1.00
        0.071483705972                   1
 s    1 1.00
        0.028250687604                   1
 p    5 1.00
          640.48536096  0.0093555063746755
          150.69711194   0.068993338492216
          47.503755296     0.2634118959318
          16.934120165    0.51034501651775
           6.240968059    0.33195512953954
 p    3 1.00
          3.0885463206    0.32917682676976
          1.1791047769    0.55491385190365
         0.43369774432    0.23818412855984
 p    1 1.00
              0.120675                   1
 d    4 1.00
          27.559479426   0.036950140313562
          7.4687020327    0.18821519783039
          2.4345903574    0.44641244239929
         0.78244754808     0.5681617303244
 d    1 1.00
         0.21995774311                   1
 f    1 1.00
                 1.147                   1

2 0
 s    6 1.00
          51528.086349  0.0017695545768669
          7737.2103487   0.013556436258096
           1760.374847   0.067162645785071
          496.87706544    0.23295905918518
          161.46520598    0.47040576982722
          55.466352268    0.35733072606876
 s    3 1.00
          107.54732999   -0.10605255446629
          12.408671897    0.62543981484169
          5.0423628826    0.44878820793655
 s    3 1.00
          8.5461640165   -0.21819012081133
          1.3900441221    0.70422525667731
         0.56066602876    0.42488555412558
 s    1 1.00
        0.071483705972                   1
 s    1 1.00
        0.028250687604                   1
 p    5 1.00
          640.48536096  0.0093555063746755
          150.69711194   0.068993338492216
          47.503755296     0.2634118959318
          16.934120165    0.51034501651775
           6.240968059    0.33195512953954
 p    3 1.00
          3.0885463206    0.32917682676976
          1.1791047769    0.55491385190365
         0.43369774432    0.23818412855984
 p    1 1.00
              0.120675                   1
 d    4 1.00
          27.559479426   0.036950140313562
          7.4687020327    0.18821519783039
          2.4345903574    0.44641244239929
         0.78244754808     0.5681617303244
 d    1 1.00
         0.21995774311                   1
 f    1 1.00
                 1.147                   1

3 0
 s    5 1.00
          2266.1767785  -0.0053893503921743
          340.87010191   -0.04023472138896
          77.363135167   -0.18008184205526
           21.47964494   -0.46828857657651
          6.6589433124   -0.44692617160187
 s    1 1.00
         0.80975975668                   1
 s    1 1.00
         0.25530772234                   1
 p    3 1.00
          17.721504317   0.062630248763161
           3.863550544    0.33331138482352
          1.0480920883    0.74148638308122
 p    1 1.00
         0.27641544411                   1
 d    1 1.00
                   1.2                   1

4 0
 s    5 1.00
          1712.8415853  -0.0054477995804909
          257.64812677  -0.040627174632423
          58.458245853   -0.18111962250584
          16.198367905   -0.46843975563173
          5.0052600809   -0.44616846289231
 s    1 1.00
         0.58731856571                   1
 s    1 1.00
         0.18764592253                   1
 p    3 1.00
          13.571470233  -0.058848116969522
          2.9257372874   -0.32024624762471
         0.79927750754   -0.75328226520436
 p    1 1.00
         0.21954348034                   1
 d    1 1.00
                     1                   1

5 0
 s    3 1.00
             13.010701   0.033485484812989
             1.9622572    0.23472187088125
            0.44453796    0.81377028525955
 s    1 1.00
            0.12194962                   1
 p    1 1.00
                   0.8                   1

6 0
 s    3 1.00
             13.010701   0.033485484812989
             1.9622572    0.23472187088125
            0.44453796    0.81377028525955
 s    1 1.00
            0.12194962                   1
 p    1 1.00
                   0.8                   1

7 0
 s    3 1.00
             13.010701   0.033485484812989
             1.9622572    0.23472187088125
            0.44453796    0.81377028525955
 s    1 1.00
            0.12194962                   1
 p    1 1.00
                   0.8                   1

8 0
 s    5 1.00
          1712.8415853  -0.0054477995804909
          257.64812677  -0.040627174632423
          58.458245853   -0.18111962250584
          16.198367905   -0.46843975563173
          5.0052600809   -0.44616846289231
 s    1 1.00
         0.58731856571                   1
 s    1 1.00
         0.18764592253                   1
 p    3 1.00
          13.571470233  -0.058848116969522
          2.9257372874   -0.32024624762471
         0.79927750754   -0.75328226520436
 p    1 1.00
         0.21954348034                   1
 d    1 1.00
                     1                   1

9 0
 s    3 1.00
             13.010701   0.033485484812989
             1.9622572    0.23472187088125
            0.44453796    0.81377028525955
 s    1 1.00
            0.12194962                   1
 p    1 1.00
                   0.8                   1

10 0
 s    3 1.00
             13.010701   0.033485484812989
             1.9622572    0.23472187088125
            0.44453796    0.81377028525955
 s    1 1.00
            0.12194962                   1
 p    1 1.00
                   0.8                   1

11 0
 s    3 1.00
             13.010701   0.033485484812989
             1.9622572    0.23472187088125
            0.44453796    0.81377028525955
 s    1 1.00
            0.12194962                   1
 p    1 1.00
                   0.8                   1

12 0
 s    5 1.00
          1712.8415853  -0.0054477995804909
          257.64812677  -0.040627174632423
          58.458245853   -0.18111962250584
          16.198367905   -0.46843975563173
          5.0052600809   -0.44616846289231
 s    1 1.00
         0.58731856571                   1
 s    1 1.00
         0.18764592253                   1
 p    3 1.00
          13.571470233  -0.058848116969522
          2.9257372874   -0.32024624762471
         0.79927750754   -0.75328226520436
 p    1 1.00
         0.21954348034                   1
 d    1 1.00
                     1                   1

13 0
 s    3 1.00
             13.010701   0.033485484812989
             1.9622572    0.23472187088125
            0.44453796    0.81377028525955
 s    1 1.00
            0.12194962                   1
 p    1 1.00
                   0.8                   1

14 0
 s    3 1.00
             13.010701   0.033485484812989
             1.9622572    0.23472187088125
            0.44453796    0.81377028525955
 s    1 1.00
            0.12194962                   1
 p    1 1.00
                   0.8                   1

15 0
 s    3 1.00
             13.010701   0.033485484812989
             1.9622572    0.23472187088125
            0.44453796    0.81377028525955
 s    1 1.00
            0.12194962                   1
 p    1 1.00
                   0.8                   1

16 0
 s    5 1.00
          1712.8415853  -0.0054477995804909
          257.64812677  -0.040627174632423
          58.458245853   -0.18111962250584
          16.198367905   -0.46843975563173
          5.0052600809   -0.44616846289231
 s    1 1.00
         0.58731856571                   1
 s    1 1.00
         0.18764592253                   1
 p    3 1.00
          13.571470233  -0.058848116969522
          2.9257372874   -0.32024624762471
         0.79927750754   -0.75328226520436
 p    1 1.00
         0.21954348034                   1
 d    1 1.00
                     1                   1

17 0
 s    3 1.00
             13.010701   0.033485484812989
             1.9622572    0.23472187088125
            0.44453796    0.81377028525955
 s    1 1.00
            0.12194962                   1
 p    1 1.00
                   0.8                   1

18 0
 s    3 1.00
             13.010701   0.033485484812989
             1.9622572    0.23472187088125
            0.44453796    0.81377028525955
 s    1 1.00
            0.12194962                   1
 p    1 1.00
                   0.8                   1

19 0
 s    3 1.00
             13.010701   0.033485484812989
             1.9622572    0.23472187088125
            0.44453796    0.81377028525955
 s    1 1.00
            0.12194962                   1
 p    1 1.00
                   0.8                   1

20 0
 s    5 1.00
          1712.8415853  -0.0054477995804909
          257.64812677  -0.040627174632423
          58.458245853   -0.18111962250584
          16.198367905   -0.46843975563173
          5.0052600809   -0.44616846289231
 s    1 1.00
         0.58731856571                   1
 s    1 1.00
         0.18764592253                   1
 p    3 1.00
          13.571470233  -0.058848116969522
          2.9257372874   -0.32024624762471
         0.79927750754   -0.75328226520436
 p    1 1.00
         0.21954348034                   1
 d    1 1.00
                     1                   1

21 0
 s    3 1.00
             13.010701   0.033485484812989
             1.9622572    0.23472187088125
            0.44453796    0.81377028525955
 s    1 1.00
            0.12194962                   1
 p    1 1.00
                   0.8                   1

22 0
 s    3 1.00
             13.010701   0.033485484812989
             1.9622572    0.23472187088125
            0.44453796    0.81377028525955
 s    1 1.00
            0.12194962                   1
 p    1 1.00
                   0.8                   1

23 0
 s    3 1.00
             13.010701   0.033485484812989
             1.9622572    0.23472187088125
            0.44453796    0.81377028525955
 s    1 1.00
            0.12194962                   1
 p    1 1.00
                   0.8                   1

24 0
 s    5 1.00
          1712.8415853  -0.0054477995804909
          257.64812677  -0.040627174632423
          58.458245853   -0.18111962250584
          16.198367905   -0.46843975563173
          5.0052600809   -0.44616846289231
 s    1 1.00
         0.58731856571                   1
 s    1 1.00
         0.18764592253                   1
 p    3 1.00
          13.571470233  -0.058848116969522
          2.9257372874   -0.32024624762471
         0.79927750754   -0.75328226520436
 p    1 1.00
         0.21954348034                   1
 d    1 1.00
                     1                   1

25 0
 s    3 1.00
             13.010701   0.033485484812989
             1.9622572    0.23472187088125
            0.44453796    0.81377028525955
 s    1 1.00
            0.12194962                   1
 p    1 1.00
                   0.8                   1

26 0
 s    3 1.00
             13.010701   0.033485484812989
             1.9622572    0.23472187088125
            0.44453796    0.81377028525955
 s    1 1.00
            0.12194962                   1
 p    1 1.00
                   0.8                   1

27 0
 s    3 1.00
             13.010701   0.033485484812989
             1.9622572    0.23472187088125
            0.44453796    0.81377028525955
 s    1 1.00
            0.12194962                   1
 p    1 1.00
                   0.8                   1

28 0
 s    5 1.00
          1712.8415853  -0.0054477995804909
          257.64812677  -0.040627174632423
          58.458245853   -0.18111962250584
          16.198367905   -0.46843975563173
          5.0052600809   -0.44616846289231
 s    1 1.00
         0.58731856571                   1
 s    1 1.00
         0.18764592253                   1
 p    3 1.00
          13.571470233  -0.058848116969522
          2.9257372874   -0.32024624762471
         0.79927750754   -0.75328226520436
 p    1 1.00
         0.21954348034                   1
 d    1 1.00
                     1                   1

29 0
 s    3 1.00
             13.010701   0.033485484812989
             1.9622572    0.23472187088125
            0.44453796    0.81377028525955
 s    1 1.00
            0.12194962                   1
 p    1 1.00
                   0.8                   1

30 0
 s    3 1.00
             13.010701   0.033485484812989
             1.9622572    0.23472187088125
            0.44453796    0.81377028525955
 s    1 1.00
            0.12194962                   1
 p    1 1.00
                   0.8                   1

31 0
 s    3 1.00
             13.010701   0.033485484812989
             1.9622572    0.23472187088125
            0.44453796    0.81377028525955
 s    1 1.00
            0.12194962                   1
 p    1 1.00
                   0.8                   1

32 0
 s    5 1.00
          1712.8415853  -0.0054477995804909
          257.64812677  -0.040627174632423
          58.458245853   -0.18111962250584
          16.198367905   -0.46843975563173
          5.0052600809   -0.44616846289231
 s    1 1.00
         0.58731856571                   1
 s    1 1.00
         0.18764592253                   1
 p    3 1.00
          13.571470233  -0.058848116969522
          2.9257372874   -0.32024624762471
         0.79927750754   -0.75328226520436
 p    1 1.00
         0.21954348034                   1
 d    1 1.00
                     1                   1

33 0
 s    3 1.00
             13.010701   0.033485484812989
             1.9622572    0.23472187088125
            0.44453796    0.81377028525955
 s    1 1.00
            0.12194962                   1
 p    1 1.00
                   0.8                   1

34 0
 s    3 1.00
             13.010701   0.033485484812989
             1.9622572    0.23472187088125
            0.44453796    0.81377028525955
 s    1 1.00
            0.12194962                   1
 p    1 1.00
                   0.8                   1

35 0
 s    3 1.00
             13.010701   0.033485484812989
             1.9622572    0.23472187088125
            0.44453796    0.81377028525955
 s    1 1.00
            0.12194962                   1
 p    1 1.00
                   0.8                   1

36 0
 s    5 1.00
          1712.8415853  -0.0054477995804909
          257.64812677  -0.040627174632423
          58.458245853   -0.18111962250584
          16.198367905   -0.46843975563173
          5.0052600809   -0.44616846289231
 s    1 1.00
         0.58731856571                   1
 s    1 1.00
         0.18764592253                   1
 p    3 1.00
          13.571470233  -0.058848116969522
          2.9257372874   -0.32024624762471
         0.79927750754   -0.75328226520436
 p    1 1.00
         0.21954348034                   1
 d    1 1.00
                     1                   1

37 0
 s    3 1.00
             13.010701   0.033485484812989
             1.9622572    0.23472187088125
            0.44453796    0.81377028525955
 s    1 1.00
            0.12194962                   1
 p    1 1.00
                   0.8                   1

38 0
 s    3 1.00
             13.010701   0.033485484812989
             1.9622572    0.23472187088125
            0.44453796    0.81377028525955
 s    1 1.00
            0.12194962                   1
 p    1 1.00
                   0.8                   1

39 0
 s    3 1.00
             13.010701   0.033485484812989
             1.9622572    0.23472187088125
            0.44453796    0.81377028525955
 s    1 1.00
            0.12194962                   1
 p    1 1.00
                   0.8                   1

40 0
 s    5 1.00
          1712.8415853  -0.0054477995804909
          257.64812677  -0.040627174632423
          58.458245853   -0.18111962250584
          16.198367905   -0.46843975563173
          5.0052600809   -0.44616846289231
 s    1 1.00
         0.58731856571                   1
 s    1 1.00
         0.18764592253                   1
 p    3 1.00
          13.571470233  -0.058848116969522
          2.9257372874   -0.32024624762471
         0.79927750754   -0.75328226520436
 p    1 1.00
         0.21954348034                   1
 d    1 1.00
                     1                   1

41 0
 s    3 1.00
             13.010701   0.033485484812989
             1.9622572    0.23472187088125
            0.44453796    0.81377028525955
 s    1 1.00
            0.12194962                   1
 p    1 1.00
                   0.8                   1

42 0
 s    3 1.00
             13.010701   0.033485484812989
             1.9622572    0.23472187088125
            0.44453796    0.81377028525955
 s    1 1.00
            0.12194962                   1
 p    1 1.00
                   0.8                   1

43 0
 s    3 1.00
             13.010701   0.033485484812989
             1.9622572    0.23472187088125
            0.44453796    0.81377028525955
 s    1 1.00
            0.12194962                   1
 p    1 1.00
                   0.8                   1

[5d]
[7f]
[9g]

[MO]
 Sym= A
 Ene=               0
 Spin= Alpha
 Occup=    1.00000
   1    1.7875040621918e-05
   2    -2.257422767668e-05
   3    0.00034466774733484
   4    0.00028662902473683
   5    0.00019653351112008
   6    0.0001175555251554
   7    8.8211976175977e-05
   8    -0.00010438775481149
   9    -0.00036267012237397
  10    -0.00027457080958355
  11    0.00033351474872642
  12    -0.00021734761079509
  13    -0.00015513363584488
  14    -0.00027879987305514
  15     0.095346995342012
  16    -0.061627003024228
  17     -0.12077274972034
  18     -0.10712257587824
  19     -0.05693915848765
  20     0.069660129029831
  21    -0.045198090460444
  22    -0.088006262164031
  23    -0.077805696474499
  24    -0.041672147844285
  25    -0.00050115006988902
  26    0.00043263553063495
  27    0.00016624235671199
  28    -0.00027931555116842
  29    7.0334278709594e-05
  30    -0.0005756714257162
  31    0.0003222687869517
  32    -2.4581525338248e-05
  33    4.1861369056898e-05
  34    -0.00044206811991555
  35    5.5295890279766e-05
  36    -0.00013200640029191
  37    2.9884219534516e-06
  38    -4.0932534303453e-05
  39    -1.3566340158171e-05
  40    -8.0128580128566e-06
  41    0.00013770041155724
  42    4.4407466275585e-05
  43    -0.00012249298294971
  44    -0.00028900216509655
  45    6.1805816937031e-05
  46    -0.00029513017683446
  47    3.0812515337794e-05
  48    0.00060551487399946
  49    4.1619303042353e-05
  50    -8.2997415850882e-05
  51    -0.00085178132917095
  52    0.00052531947679648
  53     0.001104029709917
  54    0.00065687166317225
  55    0.00035640371587991
  56    -3.9612376808467e-06
  57    1.2955880128273e-05
  58    2.7549422535416e-06
  59    3.0744325597453e-06
  60    1.2805865759632e-05
  61    -3.3480629316831e-05
  62    1.666363947346e-05
  63    -4.6948820674711e-05
  64    -0.00021838198798072
  65    -3.7764695264938e-05
  66    -0.0011290578992973
  67    0.00020566235042842
  68    0.00094134287166778
  69    -0.00087524531834966
  70    0.0002934587801465
  71    0.00063641725358046
  72    0.0003934004035996
  73    -0.00025872899564978
  74    -0.0005031547228405
  75    -0.00043506029867872
  76    -0.00023805085715313
  77    -0.060452253658262
  78     -0.15319618396732
  79     -0.13182593746124
  80     -0.21151917836622
  81    -0.085866185327528
  82    -0.071679251815505
  83      0.14771662210396
  84     0.065318404992553
  85     0.051601058539612
  86    0.00023286303535725
  87    -0.00027902549428165
  88    -0.00045787613962998
  89    -0.00011907508356918
  90    -0.00021562422085979
  91     0.025254582591235
  92      0.01589399139784
  93    0.0039976692120206
  94    0.0040858157526324
  95    0.0044687415409991
  96     0.024784142447922
  97     0.019007889672779
  98    0.0062134298044536
  99    0.0031816035334663
 100    -0.00089498456731191
 101     0.017103399476256
 102      0.01926580766323
 103     0.007187612042438
 104    0.00036039455270162
 105    0.0018715332240304
 106     0.060266230062886
 107      0.15265817885472
 108      0.13226450388645
 109    0.0040538575971584
 110        0.149789456314
 111     -0.18729033737158
 112    0.00082272490667396
 113     -0.11030687836329
 114      0.13048229514108
 115    0.00013681249473702
 116    -0.00015023076884074
 117    -0.00044514030489406
 118    -0.00039982406812841
 119    -0.00032212446179375
 120     -0.01485698840924
 121    -0.020379344764829
 122    -0.0016353559569507
 123    -0.0031209064389796
 124    0.0066545282296599
 125    -0.026072959876883
 126    -0.016220067861866
 127    -0.00043238270935489
 128    -0.0065271001069017
 129    0.0026835322318638
 130    -0.025407375171042
 131     -0.01717497115062
 132    0.0024851509968125
 133    -0.0027792621036422
 134    0.0058225745799608
 135     0.060636805238331
 136      0.15386327121474
 137      0.13237646701276
 138    -0.013249380979947
 139     -0.14492337196375
 140       0.1905637804253
 141     0.013080211978971
 142      0.10009548870763
 143     -0.13669118345413
 144    0.0004458921554074
 145    -0.0002772936771427
 146    -0.00026939428960292
 147    -0.00016812923481499
 148    -0.00015953356607968
 149    -0.025082473614679
 150    -0.015793556983096
 151    0.0010073982222814
 152    0.0010883261416509
 153    -0.0071126640519305
 154    -0.017445797744273
 155     -0.01956920893334
 156    -0.0015988934627452
 157    0.0054326956196587
 158    -0.0048470289654052
 159    -0.024455148979021
 160    -0.019119332648141
 161    0.0023009432223209
 162    0.0055759372980307
 163    -0.0036513638160381
 164    -0.060142596524394
 165     -0.15215986535161
 166     -0.13183321183526
 167      0.21514258310599
 168     0.075879848263235
 169     0.071799352107104
 170     -0.15552096630293
 171    -0.049340561912291
 172    -0.049159910214843
 173    0.00040455622291119
 174    -0.00016436243917032
 175    -0.00029354495201264
 176    -0.00043023823444357
 177    -2.7300660347673e-05
 178     0.024658818016567
 179     0.017459424130761
 180    -0.005262985169609
 181    -0.00074834099689062
 182    -0.0044714488616582
 183     0.026078575297549
 184     0.016125142349264
 185    -0.0070482442320475
 186    -0.00049665908518758
 187    0.00099664986119709
 188     0.016006349929715
 189     0.019472505526541
 190    -0.005445602297155
 191    -0.0043301147777191
 192    -0.0026393284685625
 193    -3.0771948087168e-05
 194    3.9879120635561e-05
 195    -2.8822149579659e-05
 196    0.00025224979276924
 197    0.00052160724591028
 198    -0.0001689488048697
 199    -0.0017073632682413
 200    -0.0022797910325777
 201    0.0013469212293253
 202    0.00040473252923009
 203    -0.00025814021753268
 204    -0.00052421299235106
 205    -0.00047717120243919
 206    -0.00024601600761503
 207     0.002253133887218
 208    0.0011380360783836
 209    -0.00050468431087249
 210    0.00071077419688926
 211    -9.991259885959e-05
 212    -0.0018841386364964
 213    -0.0010937993898584
 214    0.00072578684646039
 215    -0.0004555014264854
 216    7.1703287989833e-05
 217    -0.00013525900049377
 218    -0.00019042919220539
 219    -0.00050956763280656
 220    -0.0005922781079764
 221    0.00023757588376885
 222    -0.00025707348357036
 223    1.8356978840078e-05
 224    -0.0029035957468178
 225    -0.00026543863474351
 226    -0.00087843877309181
 227    -0.0006045668121751
 228    -0.0017877707948059
 229    0.0017513551898729
 230    0.0012742084163074
 231    2.1522314812064e-05
 232    -9.5594664877489e-05
 233    3.6119084887935e-05
 234    0.00011560677227595
 235    -5.0158122630624e-05
 236    -0.00015779679255523
 237    0.00083855245162673
 238    -8.0296730272841e-05
 239    5.3620422676727e-05
 240    -8.4499036633503e-05
 241    -9.5779216520576e-05
 242    3.030715878212e-05
 243    0.00017287756595911
 244    -8.8542754459743e-05
 245    -7.7888704389175e-05
 246    -0.00015626424487249
 247    -0.00044444576582721
 248    -6.3085060904456e-05
 249    2.4338771753172e-05
 250    0.00015318527500915
 251    0.00012093593402302
 252    -0.00037878056248017
 253    0.0015971257543473
 254    -0.0004861576828363
 255    0.0011886473900169
 256    -0.00031363890109069
 257    0.00088984205021083
 258    -0.0014869476401328
 259    -0.0016159779527549
 260    -8.9521135929635e-05
 261    1.0161094194949e-05
 262    -7.7028094336195e-05
 263    2.3726404367974e-05
 264    -4.5136261592023e-05
 265    0.00015964360741614
 266    0.00032578515867713
 267    -6.2368180231543e-05
 268    -0.00011629142058415
 269    -6.1418192073377e-05
 270    0.00019505597502365
 271    0.00014877497791442
 272    7.2888778827056e-05
 273    8.6646782133065e-05
 274    -0.00018150739073212
 275    -1.3155673907618e-05
 276    -5.5718518611209e-05
 277    -3.7171966466775e-05
 278    6.1322462221252e-05
 279    0.00019223439164315
 280    -0.00023390159006216
 281    -7.9244141898499e-05
 282    -0.0019703644448504
 283    0.0010117055804554
 284    -0.00043669406742077
 285    -0.00015277090076713
 286    -0.00051608095951129
 287    0.0017869326746537
 288    0.0015841288808628
 289    9.2754547583757e-05
 290    -1.0712541655278e-05
 291    8.6880229342084e-05
 292    -2.8022902494633e-05
 293    4.4529765542547e-05
 294    -0.00023721361590019
 295    -0.00030764023702514
 296    -5.8663862182482e-05
 297    -6.6735891332772e-07
 298    0.00014778605388023
 299    -7.6963918552043e-05
 300    0.00010363845796191
 301    -1.4809949441391e-05
 302    -0.00012493921263479
 303    -0.00016259376060436
 304    -0.00023600004588886
 305    -7.3123272729265e-05
 306    0.00014485859350236
 307    0.00012172772851239
 308    5.2005714881118e-05
 309    0.00017553883650491
 310    -0.00045251843933216
 311    0.0027140537394263
 312    -0.00044121129983139
 313    3.690472841033e-05
 314    0.0012663844245495
 315     0.001321473231898
 316    -0.0023755395978657
 317    -0.0012426749895829
 318    4.3342993107149e-05
 319    -1.0456078014461e-05
 320    -3.250723637042e-05
 321    0.00015381193551694
 322    4.9410858849959e-05
 323    5.5527385774869e-05
 324    0.00051823864913043
 325    -4.4212855440156e-06
 326    -0.000125559838299
 327    -0.00010460203503829
 328    4.3219786616417e-05
 329    7.2440501548946e-05
 330    -0.00010539473870869
 331    0.00018576954429803
 332    2.8915719101463e-06
 333    3.8425200230232e-05
 334    -0.00068809986224849
 335    8.9726725401229e-05
 336    5.7542087048838e-05
 337    5.3988985838367e-05
 338    -5.1355322787311e-05