[Molden Format]
made by pyscf v[2.0.1]
[Atoms] (AU)
Fe   1   26     3.17068844873907     0.00098706064664     0.12237737881307
Fe   2   26    -3.17068844873907    -0.00098706064664     0.12237737881307
O   3   8     0.00000000000000     0.00000000000000    -0.89004350580623
Cl   4   17     3.53383895113107    -2.07485195383062     3.76228752659000
Cl   5   17     5.54152580550813    -1.85590924879884    -2.78672786652360
Cl   6   17     4.48169216485503     3.92976278472880    -0.95330240907949
Cl   7   17    -3.53383895113107     2.07485195383062     3.76228752659000
Cl   8   17    -5.54152580550813     1.85590924879884    -2.78672786652360
Cl   9   17    -4.48169216485503    -3.92976278472880    -0.95330240907949
[GTO]
1 0
 s    6 1.00
          60923.640643  0.0017552243692958
          9147.8893982   0.013449023284001
          2081.3505927   0.066678874640978
          587.55977067    0.23176348548844
           191.0904399    0.46945550248188
          65.732730112     0.3596824938678
 s    3 1.00
          127.25891928   -0.10723431835929
           14.83091301    0.62971616328466
          6.0653307408    0.44472317896179
 s    3 1.00
           10.44994371   -0.21694289195548
          1.7245228003    0.69457867408393
         0.71772177325    0.43298308896347
 s    1 1.00
        0.091449828308                   1
 s    1 1.00
        0.033706691021                   1
 p    5 1.00
          773.43750995  0.0091440529992506
          182.15149714   0.067887577136571
          57.547272758    0.26167978878504
          20.614988935    0.51088040113251
           7.634855789    0.33235475570224
 p    3 1.00
           3.871932799    0.33193859098144
          1.4924724132     0.5553666555499
         0.56061284958    0.23106034201617
 p    1 1.00
              0.134915                   1
 d    4 1.00
          38.968133419   0.033335938558743
          10.800067078    0.17766212505983
          3.6136457999      0.441281781625
          1.2129967888    0.57089200490673
 d    1 1.00
          0.3652439317                   1
 f    1 1.00
                 1.598                   1

2 0
 s    6 1.00
          60923.640643  0.0017552243692958
          9147.8893982   0.013449023284001
          2081.3505927   0.066678874640978
          587.55977067    0.23176348548844
           191.0904399    0.46945550248188
          65.732730112     0.3596824938678
 s    3 1.00
          127.25891928   -0.10723431835929
           14.83091301    0.62971616328466
          6.0653307408    0.44472317896179
 s    3 1.00
           10.44994371   -0.21694289195548
          1.7245228003    0.69457867408393
         0.71772177325    0.43298308896347
 s    1 1.00
        0.091449828308                   1
 s    1 1.00
        0.033706691021                   1
 p    5 1.00
          773.43750995  0.0091440529992506
          182.15149714   0.067887577136571
          57.547272758    0.26167978878504
          20.614988935    0.51088040113251
           7.634855789    0.33235475570224
 p    3 1.00
           3.871932799    0.33193859098144
          1.4924724132     0.5553666555499
         0.56061284958    0.23106034201617
 p    1 1.00
              0.134915                   1
 d    4 1.00
          38.968133419   0.033335938558743
          10.800067078    0.17766212505983
          3.6136457999      0.441281781625
          1.2129967888    0.57089200490673
 d    1 1.00
          0.3652439317                   1
 f    1 1.00
                 1.598                   1

3 0
 s    5 1.00
          2266.1767785  -0.0053893503921743
          340.87010191   -0.04023472138896
          77.363135167   -0.18008184205526
           21.47964494   -0.46828857657651
          6.6589433124   -0.44692617160187
 s    1 1.00
         0.80975975668                   1
 s    1 1.00
         0.25530772234                   1
 p    3 1.00
          17.721504317   0.062630248763161
           3.863550544    0.33331138482352
          1.0480920883    0.74148638308122
 p    1 1.00
         0.27641544411                   1
 d    1 1.00
                   1.2                   1

4 0
 s    5 1.00
          10449.827566  0.0054265953789407
          1571.7365221   0.040626378128836
          357.12065523    0.18359747852877
          100.25185935    0.47438948768198
          30.812727554    0.43735181104122
 s    3 1.00
          51.923789434  -0.092754154848099
          5.7045760975    0.56380825544207
          2.3508376809    0.50367044629712
 s    1 1.00
         0.44605124672                   1
 s    1 1.00
          0.1684885619                   1
 p    5 1.00
          307.66790569  -0.0088797025588865
          72.102015515  -0.064284071721237
          22.532680262   -0.24288739736006
          7.8991765444   -0.48340836369878
          2.8767268321   -0.38952563875509
 p    1 1.00
         0.77459363955                   1
 p    1 1.00
         0.21037699698                   1
 d    1 1.00
                  0.65                   1

5 0
 s    5 1.00
          10449.827566  0.0054265953789407
          1571.7365221   0.040626378128836
          357.12065523    0.18359747852877
          100.25185935    0.47438948768198
          30.812727554    0.43735181104122
 s    3 1.00
          51.923789434  -0.092754154848099
          5.7045760975    0.56380825544207
          2.3508376809    0.50367044629712
 s    1 1.00
         0.44605124672                   1
 s    1 1.00
          0.1684885619                   1
 p    5 1.00
          307.66790569  -0.0088797025588865
          72.102015515  -0.064284071721237
          22.532680262   -0.24288739736006
          7.8991765444   -0.48340836369878
          2.8767268321   -0.38952563875509
 p    1 1.00
         0.77459363955                   1
 p    1 1.00
         0.21037699698                   1
 d    1 1.00
                  0.65                   1

6 0
 s    5 1.00
          10449.827566  0.0054265953789407
          1571.7365221   0.040626378128836
          357.12065523    0.18359747852877
          100.25185935    0.47438948768198
          30.812727554    0.43735181104122
 s    3 1.00
          51.923789434  -0.092754154848099
          5.7045760975    0.56380825544207
          2.3508376809    0.50367044629712
 s    1 1.00
         0.44605124672                   1
 s    1 1.00
          0.1684885619                   1
 p    5 1.00
          307.66790569  -0.0088797025588865
          72.102015515  -0.064284071721237
          22.532680262   -0.24288739736006
          7.8991765444   -0.48340836369878
          2.8767268321   -0.38952563875509
 p    1 1.00
         0.77459363955                   1
 p    1 1.00
         0.21037699698                   1
 d    1 1.00
                  0.65                   1

7 0
 s    5 1.00
          10449.827566  0.0054265953789407
          1571.7365221   0.040626378128836
          357.12065523    0.18359747852877
          100.25185935    0.47438948768198
          30.812727554    0.43735181104122
 s    3 1.00
          51.923789434  -0.092754154848099
          5.7045760975    0.56380825544207
          2.3508376809    0.50367044629712
 s    1 1.00
         0.44605124672                   1
 s    1 1.00
          0.1684885619                   1
 p    5 1.00
          307.66790569  -0.0088797025588865
          72.102015515  -0.064284071721237
          22.532680262   -0.24288739736006
          7.8991765444   -0.48340836369878
          2.8767268321   -0.38952563875509
 p    1 1.00
         0.77459363955                   1
 p    1 1.00
         0.21037699698                   1
 d    1 1.00
                  0.65                   1

8 0
 s    5 1.00
          10449.827566  0.0054265953789407
          1571.7365221   0.040626378128836
          357.12065523    0.18359747852877
          100.25185935    0.47438948768198
          30.812727554    0.43735181104122
 s    3 1.00
          51.923789434  -0.092754154848099
          5.7045760975    0.56380825544207
          2.3508376809    0.50367044629712
 s    1 1.00
         0.44605124672                   1
 s    1 1.00
          0.1684885619                   1
 p    5 1.00
          307.66790569  -0.0088797025588865
          72.102015515  -0.064284071721237
          22.532680262   -0.24288739736006
          7.8991765444   -0.48340836369878
          2.8767268321   -0.38952563875509
 p    1 1.00
         0.77459363955                   1
 p    1 1.00
         0.21037699698                   1
 d    1 1.00
                  0.65                   1

9 0
 s    5 1.00
          10449.827566  0.0054265953789407
          1571.7365221   0.040626378128836
          357.12065523    0.18359747852877
          100.25185935    0.47438948768198
          30.812727554    0.43735181104122
 s    3 1.00
          51.923789434  -0.092754154848099
          5.7045760975    0.56380825544207
          2.3508376809    0.50367044629712
 s    1 1.00
         0.44605124672                   1
 s    1 1.00
          0.1684885619                   1
 p    5 1.00
          307.66790569  -0.0088797025588865
          72.102015515  -0.064284071721237
          22.532680262   -0.24288739736006
          7.8991765444   -0.48340836369878
          2.8767268321   -0.38952563875509
 p    1 1.00
         0.77459363955                   1
 p    1 1.00
         0.21037699698                   1
 d    1 1.00
                  0.65                   1

[5d]
[7f]
[9g]

[MO]
 Sym= A
 Ene=               0
 Spin= Alpha
 Occup=    1.00000
   1    -0.017571913539008
   2     0.023961617766894
   3     -0.43161537974723
   4        3.617351750419
   5      -1.1125523948807
   6     0.041683727902359
   7    0.0011979835060434
   8    0.0055953637851313
   9     -0.14008399764167
  10    -0.004084181481024
  11     -0.01630849741857
  12     -0.43632679955805
  13     -0.02233533338367
  14     -0.41540206787058
  15    0.0029185843444474
  16    -0.0020376811787819
  17     0.020705862163541
  18    -0.017635413105962
  19    0.0028338113913793
  20    -0.079500907258924
  21      0.10170409524939
  22    -0.089286470321857
  23      0.23498427655944
  24    -0.017087829372582
  25     0.026282724995832
  26     0.017678725968462
  27    -0.020872475639105
  28    -0.023908869836229
  29    0.0054791900053286
  30    -0.035430012469835
  31    -0.0082986079044821
  32    -0.0022818108834129
  33    0.0085176687271684
  34    -0.025048112701496
  35     -0.27943394506922
  36     0.046072649625599
  37     0.009717878002592
  38    0.00082860972719708
  39    -0.0057838313551525
  40    -0.036392237988237
  41    -0.0029498635522267
  42     0.019771665248764
  43     -0.26138788683581
  44     0.020600626019312
  45      0.16288865244231
  46    0.0069919511403581
  47    -0.017633369424946
  48    0.0016999348066168
  49    0.0024268271496404
  50    0.00088641140320409
  51    -0.0073580511927811
  52       0.1489165035614
  53    -0.0055357698722289
  54    -0.078457287961534
  55    -0.0045676532551435
  56    -0.0067200949840431
  57    -0.0045299838409166
  58    -0.0010160460866114
  59    0.0095963067996233
  60    -0.00046523538520473
  61    -0.0046626821759877
  62    -0.00086271637492866
  63     0.084035727145556
  64      0.51373185254989
  65      -1.3642143597406
  66      0.28649867286598
  67    -0.0052353332950608
  68     0.088936051676411
  69       -1.362349741298
  70    0.0088321525450459
  71     -0.32360417969589
  72     0.021977593096652
  73    -0.053369468987706
  74    -0.00034929688012373
  75    -0.058767952911726
  76    -0.0026363483186236
  77    0.0027641145654924
  78    -0.022541685028298
  79      0.18265486462058
  80     -0.43292362450281
  81    -0.010629428867084
  82     0.016104662882682
  83       -0.030952547866
  84    -0.039498816207562
  85      0.08099228808828
  86     -0.15748009072126
  87     0.084160930574274
  88     -0.22959311553758
  89      0.45943226201444
  90    -0.064135898719542
  91    -0.028236377146758
  92     0.059927295560748
  93     0.010282697833089
  94     0.013566683723513
  95     0.002667902548625
  96     -0.02257200539956
  97      0.21934602094779
  98     -0.61083062069331
  99    -0.028510025332299
 100     0.012793974272374
 101     0.020706902379724
 102     -0.13911340267472
 103     0.073439079235055
 104      0.11680362962578
 105      0.42383161941722
 106     -0.27155652567068
 107     -0.40488993141573
 108    -0.0052394793986533
 109     0.075484412865005
 110    -0.052255870425741
 111    -0.026246012459021
 112     0.057723606165995
 113    0.0024443975665016
 114    -0.019771220527711
 115      0.18069233927205
 116     -0.49825008918002
 117    -0.018487738364754
 118    -0.029062568969102
 119     0.007388530352437
 120    -0.080999716413331
 121      -0.1518245265547
 122     0.037000287630152
 123      0.22092246395838
 124      0.50370981420686
 125      -0.1047879706854
 126     0.048980835185971
 127    0.0079899476207995
 128     0.019279276377239
 129     0.053924122897402
 130    -0.068469707925298
 131    -5.9882003076162e-05
 132    0.00051198499736513
 133    -0.0096934036903157
 134     0.035863571574333
 135    0.00027995792883024
 136    -0.0011041765497653
 137    -0.00081302627513608
 138    -0.0039885469454666
 139    -0.0042412512848563
 140    -0.0040680291710675
 141     0.035067858301265
 142     0.010865440615857
 143     0.011568953080896
 144    -0.0011827221386677
 145    -0.0016862623200611
 146    -0.0047786565157857
 147    -0.00097331876307206
 148    -0.00024441266754943
 149    -0.0011520051968769
 150    0.0084895558279116
 151     -0.03279139443223
 152       0.0613334844729
 153    -0.0065281425661018
 154    0.0020368721865677
 155    -0.0019251352708201
 156    -0.025719482492323
 157     0.003612440015125
 158    0.00069519480065238
 159     0.056641845158651
 160    0.0026232814967777
 161     -0.02643970457555
 162    -0.015688863025966
 163    -0.0012041513715795
 164    0.0088927436322002
 165    0.0095469659775672
 166    -0.0036345066962473
 167    -0.00083030229233769
 168    0.0063700149122398
 169    -0.035665111603352
 170     0.088300363395493
 171    -0.0035285750971547
 172    -0.0027463659237152
 173    0.0006789744167232
 174    -0.019213199114278
 175    -0.0058062986897458
 176    0.0043637672023686
 177     0.062718891420884
 178    0.0096611598131449
 179    -0.013740267375683
 180    -0.0022371561276542
 181    -0.00017045310173082
 182    -0.0091334171203916
 183    0.0080429315381971
 184     0.010136204699529
 Sym= A
 Ene=               1
 Spin= Alpha
 Occup=    1.00000
   1    -2.877197629741e-06
   2    -1.760313797935e-05
   3    -0.00017638758531758
   4    0.0028023483894088
   5    0.00045711064161818
   6    0.0002364911083453
   7    0.00014524298653586
   8    -6.4883175034826e-05
   9    -0.0009268499424234
  10    9.1693636587223e-06
  11    0.00031431381607841
  12    0.0088549432882841
  13    -0.013393726549296
  14    -0.0054981104661451
  15    -0.0014627642169762
  16    0.0005808626807347
  17    -0.0028723067488207
  18    -0.00096763890462891
  19       1.0629539558439
  20    0.0078178392454735
  21    -0.0045067710182018
  22    0.0023725360101748
  23    0.0070179312366841
  24     -0.25376655033413
  25    1.4056913878632e-06
  26    0.00051472379529917
  27    -0.00032008154280714
  28    -0.00031732812499385
  29    0.0015043793549555
  30    0.00039987046210938
  31    0.0015176113333965
  32    -3.2373600284514e-05
  33    9.4051002951182e-05
  34    -0.00046174878683261
  35    0.00073513015557141
  36    -0.0001173221387402
  37    8.4887790603494e-05
  38    0.00091667204992359
  39    1.4204838450604e-05
  40    -0.00028407712333109
  41    -0.0029837652445855
  42    -7.9031024147735e-05
  43    0.00020787768324456
  44     0.017393196205874
  45    0.0018677447002975
  46    -0.00036673180207612
  47    -3.1618409911024e-05
  48    -0.00051140435976783
  49    -0.00016642406552174
  50    0.0028975655415924
  51    -0.0013868643486192
  52    0.00011952834291119
  53    -0.0079743850661105
  54    -0.0013388845736775
  55     0.028900918330925
  56    -2.5102876755923e-05
  57    1.0505651451625e-05
  58    -0.00019213132069697
  59    -1.97548997321e-05
  60    -0.0005919080977696
  61    -2.2173763185376e-05
  62     0.001250407085064
  63    -0.00021436666703122
  64    -0.0014642723156909
  65    0.0038756287251962
  66    0.00035808585628812
  67       0.1302098763302
  68    0.0037313653036083
  69    -0.00068712097288656
  70     -0.04803213671361
  71    -0.00032965375434847
  72    -0.00014623675339624
  73    0.00021242984997105
  74    -0.0070163605750737
  75    5.8752293943116e-06
  76    -0.014716446254325
  77    -8.624299613283e-06
  78    0.00015383519751585
  79    0.0010455205630902
  80    -0.0049033600632761
  81    7.3494256422241e-05
  82    -0.0003016022204701
  83    -0.00017199166364669
  84    0.0028859543829069
  85    -0.0010506984734874
  86    -0.00087505010269139
  87    -0.012780400034334
  88    -3.829926571524e-05
  89    0.0057144946877474
  90    -0.0035949460218471
  91    0.0076911691185863
  92    0.0013934044665606
  93    0.00062289293888907
  94    -0.0022463118322792
  95    -0.00014489338226963
  96    0.0015656504810747
  97    0.0047110514790092
  98    -0.026782951102273
  99    0.0003980909583156
 100    -0.00067960521181044
 101    -0.00049788012530981
 102    0.0018079672924697
 103    -0.0027973357257519
 104    0.0007071887277562
 105    0.0084701475455707
 106    -0.0033198092007314
 107    -0.024756249812684
 108    -0.010793937222705
 109     0.010473640118956
 110    -0.0052782338005879
 111    -0.0025096026459108
 112    0.0028296481589444
 113    0.00011734282188937
 114    -0.0013459150937095
 115    -0.005328932271957
 116     0.023862171779097
 117    -4.091810647275e-05
 118    -0.00059405757336312
 119    0.00022501227577929
 120    -0.0031528090652268
 121    0.00044792725098028
 122    -0.00044835013001764
 123    0.0082852936409312
 124    -0.025104414486137
 125    0.0095417291416091
 126    -0.0044950282183908
 127     0.000292531748836
 128    -0.0087395987643573
 129    -0.015064371965862
 130    -0.001034489939936
 131    1.7185841286144e-05
 132    -0.0001302850888482
 133    0.00073383647486977
 134    -0.0031233636086457
 135    -0.00043773354229131
 136    -0.00015680395883679
 137    -1.446781997836e-05
 138    -0.00074639209563119
 139    -0.00011584893060549
 140    -0.00037573447591621
 141    -0.0016338736223907
 142    -0.001042677147782
 143    0.0024372112047033
 144    -0.00034043769808918
 145    0.00032294216894502
 146    0.00020636897711719
 147    -9.265516126064e-05
 148    0.00013740621203026
 149    2.1410256635825e-05
 150    -0.00013490171103929
 151    0.00011608949822195
 152    -0.00098785102406781
 153    -0.00031493681550011
 154    -7.8673631939614e-05
 155    0.00024114437821578
 156    -0.00057801159907388
 157    0.00016198739232774
 158    0.00061390132590774
 159    -0.0012640178890022
 160    -0.0018679456500321
 161    -0.00033335878681019
 162    3.6270975080222e-05
 163    -0.00018489731263201
 164    -0.00040929957053282
 165    -0.00031564083167738
 166    -0.00024293529375083
 167    9.2657209239758e-06
 168    -0.00012980609840096
 169    0.00051827652356475
 170    0.0028269155808733
 171    0.00091006084009207
 172    -0.00014935461053211
 173    -0.00028725568024168
 174    0.0020352863367832
 175    -0.00012015417646021
 176    -0.00067209158906282
 177     0.002110922652642
 178    0.00075329715477545
 179    0.00024278584823812
 180    2.0658788238082e-05
 181    0.00025130735656104
 182    -8.3210614236108e-05
 183    -2.2144122278529e-05
 184    0.00045731282574854
 Sym= A
 Ene=               2
 Spin= Alpha
 Occup=    1.00000
   1    -0.00030167211668011
   2    0.00074464465442897
   3    -0.0050167647876342
   4     0.014063532542466
   5    0.0038879636011412
   6    -0.00075129341450088
   7    0.00057403531329339
   8    0.00099802505264995
   9    0.0026545486955598
  10    -0.002102447251459
  11    -0.0040520226639585
  12    -0.0079062166878561
  13      0.01529928149499
  14      0.04781831092036
  15    -0.00028820445005279
  16    -0.0021388682029901
  17       1.0703539318519
  18    0.0016552680767759
  19    -0.0026359150146449
  20    0.0056880341449962
  21     0.010379645913938
  22     -0.24886257108107
  23    -0.011824916955866
  24    0.0026755022025155
  25    0.00039596018674632
  26    -0.00027843868933765
  27    -0.00085916538096089
  28    -0.00020255460270781
  29    -0.0008376559563886
  30    -0.00021743578928836
  31    0.00068914589914771
  32    3.1032404473662e-05
  33    -9.2681969193459e-05
  34    0.00049350381026377
  35    0.0007811173374386
  36    -0.00046440014449249
  37    -0.00018356316678759
  38    0.00039292779461951
  39    6.6695994067279e-05
  40    0.00070628244210655
  41    -0.0013329974023043
  42    -0.00023090956819958
  43    -0.0019532902087956
  44     0.007510049621413
  45    -0.00022889331625705
  46    -5.5329399281724e-05
  47    -0.0003050485762735
  48    -8.963049661934e-05
  49    -1.5078042395453e-05
  50    0.00051032235107652
  51    0.0018728757250336
  52    -0.0032209983440598
  53    -0.0015157072563262
  54    -0.0013902357060132
  55    0.0076734775867756
  56    4.2292147432586e-05
  57    -5.0373757672297e-05
  58    -2.2481225014731e-05
  59    -6.3565329224443e-05
  60    -0.0001764801222677
  61    8.4969984535853e-06
  62    0.00038631622305959
  63    -0.00096253273268523
  64    -0.0040599111413505
  65    0.0070792716484154
  66    -0.0077199470274622
  67     0.029262821819038
  68    -0.015244457833545
  69    0.0092355806662677
  70    -0.012333638237818
  71    0.0040901069851888
  72    -0.00019884492032157
  73    -8.0855898214023e-05
  74    0.0019341556222548
  75    0.00064944887924722
  76    -0.0063825533542001
  77    -0.00029330230384791
  78    0.0030342888019869
  79    0.0069503614896981
  80    -0.047569315902372
  81     6.22411312784e-05
  82    -0.0011123176050924
  83     0.001477142092328
  84    -0.00049478493593605
  85    -0.0036748842685465
  86     0.002221837202325
  87    0.0065122126555848
  88    -0.014529410639056
  89     0.038575240983177
  90    -0.019199859195617
  91    -0.0046501400217196
  92     0.014514721195998
  93    0.0010780113763458
  94    0.0018025685752394
  95    0.00021459299677143
  96    -0.0022733329812013
  97    -0.0049823251773833
  98     0.036219658313842
  99    -0.0003980917470746
 100    0.00067952633498548
 101    0.0010303358718429
 102    0.0012156107024618
 103    0.0029746426517588
 104    0.0026873730930163
 105    -0.028188457912511
 106    0.0066423939279768
 107      0.01986129381611
 108    0.0025807343532372
 109    -0.016061298074449
 110    0.0059517126221079
 111    0.0089042616163451
 112    -0.0063330216065239
 113    -0.00016251294264239
 114    0.0015828932192565
 115    0.0035534615756096
 116    -0.020751248487926
 117    0.00051840266369391
 118    0.00078487602136762
 119    -0.00061040162258868
 120    5.5096055069444e-05
 121    0.00053261322061349
 122    -0.004127812415162
 123     0.010365359403702
 124     0.019464118007022
 125    0.0069981298028757
 126    0.0092369435888033
 127    -0.0011262784399813
 128    -0.0033686219318974
 129    0.0083684711846379
 130    -0.0087024044138397
 131    -1.1773717021716e-05
 132    2.0011403810029e-05
 133    0.0012323592338304
 134    -0.0035262996503804
 135    -3.8262896671104e-05
 136    6.6194018218975e-05
 137    0.00012159989323464
 138    0.00032928143843699
 139    0.00016222384327195
 140    -0.0001431122132645
 141    -0.001606403815082
 142    0.00020421631625635
 143    0.0025404318074817
 144    -0.00023456876559638
 145    9.8424650914437e-05
 146    -4.8309133726176e-05
 147    -0.000187144196009
 148    1.8351901301831e-05
 149    3.2074652417371e-05
 150    -0.0002261376875995
 151    0.00076541177740636
 152    -0.0016823483944701
 153    -3.8074889425512e-05
 154    -0.00010863298184875
 155    0.00017389986912444
 156    4.8926053311549e-05
 157    -0.00014280755166235
 158    0.00052386668428293
 159    -0.00092670887074685
 160    -0.00053489956201043
 161    -0.00070746491799353
 162    -3.0983811385881e-05
 163    -0.00018272243200318
 164    -8.7540006209802e-05
 165    -0.0001748317079666
 166    -2.0631626962481e-05
 167    2.0433247538778e-05
 168    -0.00015290989111868
 169    0.0001731915047967
 170    0.0014631011958704
 171    0.00027242968966064
 172    3.5155409190269e-05
 173    -8.5949292133975e-05
 174    0.00054546298318588
 175    4.4921983481242e-05
 176    -0.00025806059772206
 177    0.00099989726205006
 178    0.00087594942957021
 179    0.00042052451929336
 180    5.528066187371e-06
 181    0.0001528045724571
 182    8.1495554423791e-05
 183    -3.1163023284478e-05
 184    0.00022951407376954
 Sym= A
 Ene=               3
 Spin= Alpha
 Occup=    1.00000
   1    -0.00096190681850741
   2    0.0027230528920548
   3    -0.012293075319445
   4     0.025202534349869
   5    -0.0084899658482439
   6    -0.0029165302147734
   7    0.0010777699013881
   8    -0.00071685082230971
   9    0.0096439861119969
  10    -0.0042178568493616
  11    0.0027243195071637
  12    -0.040390961900801
  13     0.041232051539337
  14    -0.024199161776365
  15       1.0667822718715
  16    -0.00070520151091917
  17    -0.0007630746171592
  18    0.0035221955541607
  19    -0.0012376162934516
  20     -0.25233222872144
  21    0.0020382026799703
  22    0.0050977167690854
  23     0.015891438383274
  24    0.0082881180645124
  25    0.00027953617455243
  26    0.00076807985513966
  27    0.00088043606824406
  28    6.089385066427e-07
  29    -0.00018297415878201
  30    -0.0021446747134426
  31    -0.0002460901184867
  32    0.00075570087807892
  33    -0.0022035502434368
  34     0.010236500513483
  35    -0.0079510790889778
  36    -0.0041273075057794
  37    -0.0020317053583731
  38    -1.0352522195716e-05
  39    0.0015288761819488
  40    0.0068991832269384
  41    1.4431028165665e-05
  42    -0.0050104892671555
  43    -0.00017812295939174
  44    0.00086585806632111
  45     0.011636964770528
  46    -0.00017277476346807
  47    0.0024385302458984
  48    0.00012985122462406
  49    -0.00080612610376843
  50    -0.00042784239520152
  51    -0.009542087897098
  52     0.010202115949119
  53    -0.0017049898841904
  54     0.008648726027196
  55    -0.0017673983301127
  56    -0.00050767458937303
  57    -0.00056410670295377
  58    -7.1809679055986e-05
  59    0.00075324934177017
  60    -7.0899982605901e-05
  61    -4.6973919055125e-05
  62    4.3633485400773e-05
  63    0.00021378569092483
  64    0.0092209576061299
  65    -0.050491013455487
  66      0.01554254164074
  67    -0.0093296741490079
  68     0.067682609622575
  69     0.017554779057086
  70    -0.00073426224723358
  71    -0.015028956433859
  72    6.4750606571591e-06
  73    -0.0097543625821357
  74    -0.00021265450545248
  75    -4.3117046976607e-06
  76    -0.00046886862798533
  77    7.4714017446037e-05
  78    -0.0013985224060922
  79    -0.008074389646061
  80     0.040719644876158
  81    0.00057654102938693
  82    -0.00026429972704953
  83    -0.00037935614116129
  84    0.00077341475460541
  85    -0.0029116108538972
  86    -0.0026659079285688
  87    0.00077555839911568
  88     0.027067493838869
  89    -0.020833216933882
  90    0.0048518117741105
  91     0.002573291146506
  92    -0.020141736201784
  93    -0.0090019276912047
  94    -0.0027624042668993
  95    -3.5364678093073e-05
  96    -8.3853556019281e-05
  97    -0.0040503434608615
  98     0.016356713474945
  99    0.00039887994106081
 100    -0.00015784447047019
 101    -3.2682810486366e-05
 102     0.002232223410903
 103    -0.0013552632060087
 104    0.0023097813840345
 105    -0.013165269135813
 106    0.0095438590219615
 107    -0.0016820726702338
 108    -0.0079498362041988
 109    -0.0048123378395615
 110     0.002767890805062
 111    0.0028233716932942
 112    -0.0094356443801114
 113    -0.00024970073700414
 114    0.0021207788438656
 115    0.0047932247518544
 116    -0.031244600077779
 117    0.00061500548753507
 118    0.0014385335514257
 119    -0.00042874815842014
 120    -0.00022079422131873
 121    0.0019578540892323
 122    0.0010715906134741
 123     0.014823080015459
 124     0.024237860083868
 125    -0.014236333183296
 126    0.0041627921628308
 127    0.0038370716037041
 128    0.0099654657083048
 129    0.0057624560108093
 130    -0.0060517325357821
 131    7.2481873757197e-05
 132    -0.00043416374420061
 133    -0.00043969312507238
 134    0.0022344110844742
 135    -0.00020959423615359
 136    -0.00020025371196378
 137    -0.00042569723733776
 138    -0.00016457595294985
 139    -0.00029323759475618
 140    -0.00044050686761301
 141    -0.0013182738535716
 142    -0.00061168597805468
 143    -0.0023753778361147
 144    0.00036179527181456
 145    0.00024153906336612
 146    0.00031892374285052
 147    -0.00010122257991549
 148    0.00015264628060382
 149    0.00010691834417328
 150    -0.00063875485787943
 151    -0.0006872726339896
 152    0.0069580082496036
 153    0.0013082515164133
 154    -0.00024036551604378
 155    7.0107544248078e-06
 156    0.0018869772933518
 157    -0.00018927651189037
 158    -0.00021850707080804
 159    0.0062422819692049
 160    -0.0023012340600645
 161    0.0014247374926852
 162    -0.00019108367072453
 163    0.00022298922216978
 164    -6.5890894958549e-05
 165    -2.2951432447843e-05
 166    -0.00025244294083455
 167    0.00014760457565767
 168    -0.00089871378890473
 169    -0.00066721310618909
 170    0.0071952806285157
 171    0.00078562985772783
 172    0.00085044202218308
 173    -0.00013585406305358
 174    0.0010353217581379
 175    0.0010038679132914
 176    -0.00024444775773675
 177    0.0040617226606915
 178    0.0057881266994677
 179    -0.00038070475092255