[Molden Format]
made by pyscf v[2.4.0]
[Atoms] (AU)
Fe   1   26     3.17068844873907     0.00098706064664     0.12237737881307
O   2   8     0.00000000000000     0.00000000000000    -0.89004350580623
Fe   3   26    -3.17068844873907    -0.00098706064664     0.12237737881307
Cl   4   17     3.53383895113107    -2.07485195383062     3.76228752659000
Cl   5   17     5.54152580550813    -1.85590924879884    -2.78672786652360
Cl   6   17     4.48169216485503     3.92976278472880    -0.95330240907949
Cl   7   17    -3.53383895113107     2.07485195383062     3.76228752659000
Cl   8   17    -5.54152580550813     1.85590924879884    -2.78672786652360
Cl   9   17    -4.48169216485503    -3.92976278472880    -0.95330240907949
[GTO]
1 0
 s    8 1.00
          300784.84637  0.00024103305017787
          45088.970557  0.0018687382457119
          10262.516317  0.0097155134617046
          2905.2897293   0.039479967013317
          946.11487137    0.12842162832271
          339.87832894    0.30457860754832
          131.94425588    0.43465553776779
          52.111494077    0.22742382379948
 s    4 1.00
          329.48839267  -0.024716645792921
          101.92332739   -0.11669599822835
          16.240462745    0.55229779440271
          6.8840675801    0.53539752037712
 s    2 1.00
          10.470693782   -0.37745869768095
          1.7360039648     1.1722622909796
 s    1 1.00
         0.72577288979                   1
 s    1 1.00
         0.11595528203                   1
 s    1 1.00
        0.041968227746                   1
 p    6 1.00
           1585.395997  0.0027395641750272
          375.38006499   0.022167496552173
          120.31816501    0.10364840341367
          44.788749031    0.29703230666936
          17.829278584    0.47773374381763
          7.2247153786    0.27871749884095
 p    3 1.00
          28.143219756  -0.020268742366329
          3.8743241412    0.38603381535444
          1.5410752281    0.67538247288481
 p    1 1.00
          0.5828561525                   1
 p    1 1.00
              0.134915                   1
 d    4 1.00
          61.996675034   0.019497333982305
          17.873732552    0.11922868100386
          6.2744782934    0.37625274789341
          2.3552337175    0.64997843079553
 d    1 1.00
         0.85432239901                   1
 d    1 1.00
         0.27869254413                   1
 d    1 1.00
                 0.091                   1
 f    1 1.00
                 1.598                   1

2 0
 s    6 1.00
          27032.382631  0.00057227335211155
          4052.3871392  0.0044353233492995
           922.3272271   0.023020107706038
          261.24070989   0.092822490667928
          85.354641351    0.29378500009671
          31.035035245    0.67401604501641
 s    2 1.00
          12.260860728    0.63839937025506
          4.9987076005    0.39534587125718
 s    1 1.00
          1.1703108158                   1
 s    1 1.00
         0.46474740994                   1
 s    1 1.00
         0.18504536357                   1
 p    4 1.00
          63.274954801   0.012018332222616
          14.627049379   0.083005421790056
          4.4501223456    0.31991743925964
          1.5275799647    0.70715542916104
 p    1 1.00
         0.52935117943                   1
 p    1 1.00
          0.1747842127                   1
 d    1 1.00
                 2.314                   1
 d    1 1.00
                 0.645                   1
 f    1 1.00
                 1.428                   1

3 0
 s    8 1.00
          300784.84637  0.00024103305017787
          45088.970557  0.0018687382457119
          10262.516317  0.0097155134617046
          2905.2897293   0.039479967013317
          946.11487137    0.12842162832271
          339.87832894    0.30457860754832
          131.94425588    0.43465553776779
          52.111494077    0.22742382379948
 s    4 1.00
          329.48839267  -0.024716645792921
          101.92332739   -0.11669599822835
          16.240462745    0.55229779440271
          6.8840675801    0.53539752037712
 s    2 1.00
          10.470693782   -0.37745869768095
          1.7360039648     1.1722622909796
 s    1 1.00
         0.72577288979                   1
 s    1 1.00
         0.11595528203                   1
 s    1 1.00
        0.041968227746                   1
 p    6 1.00
           1585.395997  0.0027395641750272
          375.38006499   0.022167496552173
          120.31816501    0.10364840341367
          44.788749031    0.29703230666936
          17.829278584    0.47773374381763
          7.2247153786    0.27871749884095
 p    3 1.00
          28.143219756  -0.020268742366329
          3.8743241412    0.38603381535444
          1.5410752281    0.67538247288481
 p    1 1.00
          0.5828561525                   1
 p    1 1.00
              0.134915                   1
 d    4 1.00
          61.996675034   0.019497333982305
          17.873732552    0.11922868100386
          6.2744782934    0.37625274789341
          2.3552337175    0.64997843079553
 d    1 1.00
         0.85432239901                   1
 d    1 1.00
         0.27869254413                   1
 d    1 1.00
                 0.091                   1
 f    1 1.00
                 1.598                   1

4 0
 s    7 1.00
          69507.990945  0.00051457389646325
           10426.15688  0.0039781344806745
          2373.2334061   0.020456178670619
          671.56420071   0.080148102887582
           218.4199979    0.23454770317658
          77.572249714    0.44543368582255
          28.888815277    0.35466842499038
 s    3 1.00
          127.10527185    0.11293688054705
          39.339582961     0.4837351421006
          7.6740679989     -1.229229738981
 s    2 1.00
           3.874562763    0.67296821635762
          1.8385832573    0.34956051409054
 s    1 1.00
         0.50229057542                   1
 s    1 1.00
          0.1796272342                   1
 p    5 1.00
          666.50423284  0.0033502508198275
           157.6424169   0.026763970407523
          50.262520978      0.123626823608
          18.536078105    0.35845787918981
          7.2940532777    0.61677296353714
 p    1 1.00
          2.9433248995                   1
 p    1 1.00
          1.0404970818                   1
 p    1 1.00
          0.3845641508                   1
 p    1 1.00
         0.13069642732                   1
 d    2 1.00
                  4.61    0.18265835045336
                 1.011    0.91329175226681
 d    1 1.00
                 0.339                   1
 f    1 1.00
                 0.706                   1

5 0
 s    7 1.00
          69507.990945  0.00051457389646325
           10426.15688  0.0039781344806745
          2373.2334061   0.020456178670619
          671.56420071   0.080148102887582
           218.4199979    0.23454770317658
          77.572249714    0.44543368582255
          28.888815277    0.35466842499038
 s    3 1.00
          127.10527185    0.11293688054705
          39.339582961     0.4837351421006
          7.6740679989     -1.229229738981
 s    2 1.00
           3.874562763    0.67296821635762
          1.8385832573    0.34956051409054
 s    1 1.00
         0.50229057542                   1
 s    1 1.00
          0.1796272342                   1
 p    5 1.00
          666.50423284  0.0033502508198275
           157.6424169   0.026763970407523
          50.262520978      0.123626823608
          18.536078105    0.35845787918981
          7.2940532777    0.61677296353714
 p    1 1.00
          2.9433248995                   1
 p    1 1.00
          1.0404970818                   1
 p    1 1.00
          0.3845641508                   1
 p    1 1.00
         0.13069642732                   1
 d    2 1.00
                  4.61    0.18265835045336
                 1.011    0.91329175226681
 d    1 1.00
                 0.339                   1
 f    1 1.00
                 0.706                   1

6 0
 s    7 1.00
          69507.990945  0.00051457389646325
           10426.15688  0.0039781344806745
          2373.2334061   0.020456178670619
          671.56420071   0.080148102887582
           218.4199979    0.23454770317658
          77.572249714    0.44543368582255
          28.888815277    0.35466842499038
 s    3 1.00
          127.10527185    0.11293688054705
          39.339582961     0.4837351421006
          7.6740679989     -1.229229738981
 s    2 1.00
           3.874562763    0.67296821635762
          1.8385832573    0.34956051409054
 s    1 1.00
         0.50229057542                   1
 s    1 1.00
          0.1796272342                   1
 p    5 1.00
          666.50423284  0.0033502508198275
           157.6424169   0.026763970407523
          50.262520978      0.123626823608
          18.536078105    0.35845787918981
          7.2940532777    0.61677296353714
 p    1 1.00
          2.9433248995                   1
 p    1 1.00
          1.0404970818                   1
 p    1 1.00
          0.3845641508                   1
 p    1 1.00
         0.13069642732                   1
 d    2 1.00
                  4.61    0.18265835045336
                 1.011    0.91329175226681
 d    1 1.00
                 0.339                   1
 f    1 1.00
                 0.706                   1

7 0
 s    7 1.00
          69507.990945  0.00051457389646325
           10426.15688  0.0039781344806745
          2373.2334061   0.020456178670619
          671.56420071   0.080148102887582
           218.4199979    0.23454770317658
          77.572249714    0.44543368582255
          28.888815277    0.35466842499038
 s    3 1.00
          127.10527185    0.11293688054705
          39.339582961     0.4837351421006
          7.6740679989     -1.229229738981
 s    2 1.00
           3.874562763    0.67296821635762
          1.8385832573    0.34956051409054
 s    1 1.00
         0.50229057542                   1
 s    1 1.00
          0.1796272342                   1
 p    5 1.00
          666.50423284  0.0033502508198275
           157.6424169   0.026763970407523
          50.262520978      0.123626823608
          18.536078105    0.35845787918981
          7.2940532777    0.61677296353714
 p    1 1.00
          2.9433248995                   1
 p    1 1.00
          1.0404970818                   1
 p    1 1.00
          0.3845641508                   1
 p    1 1.00
         0.13069642732                   1
 d    2 1.00
                  4.61    0.18265835045336
                 1.011    0.91329175226681
 d    1 1.00
                 0.339                   1
 f    1 1.00
                 0.706                   1

8 0
 s    7 1.00
          69507.990945  0.00051457389646325
           10426.15688  0.0039781344806745
          2373.2334061   0.020456178670619
          671.56420071   0.080148102887582
           218.4199979    0.23454770317658
          77.572249714    0.44543368582255
          28.888815277    0.35466842499038
 s    3 1.00
          127.10527185    0.11293688054705
          39.339582961     0.4837351421006
          7.6740679989     -1.229229738981
 s    2 1.00
           3.874562763    0.67296821635762
          1.8385832573    0.34956051409054
 s    1 1.00
         0.50229057542                   1
 s    1 1.00
          0.1796272342                   1
 p    5 1.00
          666.50423284  0.0033502508198275
           157.6424169   0.026763970407523
          50.262520978      0.123626823608
          18.536078105    0.35845787918981
          7.2940532777    0.61677296353714
 p    1 1.00
          2.9433248995                   1
 p    1 1.00
          1.0404970818                   1
 p    1 1.00
          0.3845641508                   1
 p    1 1.00
         0.13069642732                   1
 d    2 1.00
                  4.61    0.18265835045336
                 1.011    0.91329175226681
 d    1 1.00
                 0.339                   1
 f    1 1.00
                 0.706                   1

9 0
 s    7 1.00
          69507.990945  0.00051457389646325
           10426.15688  0.0039781344806745
          2373.2334061   0.020456178670619
          671.56420071   0.080148102887582
           218.4199979    0.23454770317658
          77.572249714    0.44543368582255
          28.888815277    0.35466842499038
 s    3 1.00
          127.10527185    0.11293688054705
          39.339582961     0.4837351421006
          7.6740679989     -1.229229738981
 s    2 1.00
           3.874562763    0.67296821635762
          1.8385832573    0.34956051409054
 s    1 1.00
         0.50229057542                   1
 s    1 1.00
          0.1796272342                   1
 p    5 1.00
          666.50423284  0.0033502508198275
           157.6424169   0.026763970407523
          50.262520978      0.123626823608
          18.536078105    0.35845787918981
          7.2940532777    0.61677296353714
 p    1 1.00
          2.9433248995                   1
 p    1 1.00
          1.0404970818                   1
 p    1 1.00
          0.3845641508                   1
 p    1 1.00
         0.13069642732                   1
 d    2 1.00
                  4.61    0.18265835045336
                 1.011    0.91329175226681
 d    1 1.00
                 0.339                   1
 f    1 1.00
                 0.706                   1

[5d]
[7f]
[9g]

[MO]
 Sym= A
 Ene=               0
 Spin= Alpha
 Occup=    1.00000
   1    -0.00059412451710718
   2    0.0018292719536131
   3    -0.0048825342686631
   4    -0.0052209737668455
   5     0.016505970880179
   6    0.0032458607104514
   7    -0.0014192749139525
   8    -0.0011062088249993
   9    -0.0030971410384432
  10    0.0042628741923644
  11    0.0032520662578915
  12    0.0090588145192966
  13    9.1151951463058e-05
  14    -0.00041859297705371
  15    -0.00055700818594898
  16    -0.014046983873847
  17    -0.001741511986212
  18    -0.0076068780704197
  19    -0.0011814724083535
  20    0.0014034203239151
  21    0.00017317618616278
  22    0.0024155271373639
  23    8.8412490985251e-05
  24    -0.00039561617749459
  25    0.0020605627430515
  26    0.00023242668340903
  27    0.0015334355256697
  28    0.00047312480291615
  29    8.7769195768206e-05
  30    0.0040770410340097
  31    0.00017411964531211
  32     0.002467700516724
  33    0.0013284784185863
  34    -0.0057474483076231
  35    0.0025258482556091
  36    -0.0030666797208141
  37    -0.00063314430251134
  38    0.0017758094981878
  39    0.00034774386925758
  40    -0.00051562313248297
  41    7.7818025525656e-05
  42    -0.0005778825901366
  43    -0.00016682347187816
  44    3.7889270627413e-05
  45    -0.00024648884747338
  46    0.0048080269602012
  47     0.011610118568692
  48    -0.015599775261979
  49    -0.026335666303336
  50    -0.054551374174827
  51     0.042981891690279
  52    -0.021485004152339
  53    -0.045058029236718
  54      0.05274425486858
  55    -0.022265397776088
  56      -0.0488473528783
  57     0.045661077505367
  58    -0.023419344807799
  59    -0.056340104519193
  60    -0.00051174501182274
  61    -0.0013541996248155
  62    2.610092363912e-05
  63    0.0012369342758937
  64    -0.00052279609051435
  65    -0.0017298458852791
  66    0.00013283919647046
  67    -0.0010790549259853
  68    -0.0016995942620943
  69    -0.0011257385921972
  70    -3.2959909483311e-05
  71    -0.00079669806926878
  72    -7.252356489856e-05
  73    -0.00010955548061791
  74    -9.7933132117882e-05
  75    0.00069222260715502
  76    5.4695496168885e-05
  77    0.00064404485687625
  78    -0.0010689678514743
  79    0.0068509009540748
  80    -0.0038704165470935
  81     0.018424060301545
  82    -0.0074679843151088
  83    -0.015713361872776
  84    0.0032151080693703
  85     0.011323626030067
  86      0.04574959345564
  87    -0.0093672890029553
  88     -0.03301998191962
  89    -0.0068353803441515
  90    0.00053463418100613
  91    0.0033720448899684
  92    -0.018873705789092
  93    0.0075447257917856
  94     0.023705015861909
  95     -0.51879533323192
  96    -0.070009030871345
  97      -0.3495483543964
  98      0.12248409957215
  99     0.068069104694508
 100     -0.32937626949081
 101    -0.043899838296667
 102      -0.2227433577613
 103     0.073780174325236
 104     0.043045570883751
 105     -0.11866845254867
 106    -0.021775409821108
 107    -0.077408166054068
 108     0.029630743666159
 109     0.014363067739358
 110    0.0053263225158223
 111    -0.0024895271358527
 112    0.0032459659350184
 113    -0.0014955116328319
 114    -0.00021846316127841
 115    -0.0014098707578298
 116    0.0017608791040425
 117    0.00010830111083547
 118    0.0004905647061696
 119    0.00086343005149282
 120    -0.001553461447485
 121    -0.00069407274574384
 122    3.2679248162914e-05
 123    1.985151210773e-05
 124    -0.00020535846589674
 125    0.00048448893607949
 126    0.00019216901524186
 127    0.00063450645796199
 128    -0.00023848742921379
 129    -8.232588969445e-05
 130    0.00034043742096056
 131    -0.00015663814349883
 132    -4.3341691134332e-05
 133    -0.00087113883093797
 134    0.00045089376199281
 135    0.00011461543733366
 136    -0.0015749868195281
 137    0.00035202335097539
 138    -4.412432638889e-06
 139    -0.0015324320193279
 140    0.0030123852732274
 141    0.0016314447423643
 142    0.00019704275276083
 143    2.4033285515951e-05
 144    0.0001152425274274
 145    8.0031557640658e-05
 146    7.852935164192e-05
 147    -0.00036502130787771
 148    -0.00023620989639455
 149    -3.5246364622389e-06
 150    -0.00030805507081621
 151    -9.5719263147143e-05
 152    -5.3284525178917e-05
 153    1.5142297853784e-06
 154    -5.4092630240943e-05
 155    -1.0705354060984e-06
 156    2.3656234082175e-06
 157    1.3688279695353e-05
 158    -1.1399021650632e-05
 159    -0.00042406672571754
 160    -0.00034701512493469
 161    0.0025648965727541
 162    -0.0045081955794464
 163    0.00013616474355327
 164    -0.0026831018963411
 165    0.00030973459761118
 166    -0.00011332099866929
 167    -0.0014340013731501
 168    0.00019866494335247
 169    3.7852688076708e-05
 170    0.0037180295795589
 171    -0.00056518622413058
 172    -0.00024027668458538
 173      0.00705805007232
 174    -0.0006244731496477
 175    0.0011171564692108
 176    0.0067285279079223
 177    -0.00018982767452905
 178    -0.0011058971330373
 179    -0.00027721502807527
 180    -0.00020965835833797
 181    -6.6032178858719e-05
 182    0.00039885859787416
 183    -0.00015431237163899
 184    -9.5510328465296e-05
 185    0.00011731636711627
 186    0.00037192128046321
 187    0.00032683081053056
 188    -0.00041770131755414
 189    6.1816148581782e-05
 190    1.1032804737707e-05
 191    6.8320293377357e-05
 192    -5.6385107233158e-05
 193    -1.0612015450117e-05
 194    -1.0186551314142e-05
 195    5.3939601268826e-06
 196    -5.9365730856214e-05
 197    -9.2151611082307e-05
 198    0.00033136632834176
 199    0.00040658141674606
 200    -0.0050327827697941
 201    3.8354449087735e-05
 202    -0.00050302018517458
 203    -0.00060958263388914
 204    0.00010955928723666
 205    -0.00022719172691763
 206    -0.00033199076696305
 207    -0.00036122816371479
 208    0.00054509972412344
 209    0.00086049004054235
 210    0.00056695158397197
 211      0.00171869615192
 212     0.001603187733411
 213    0.00060569570877061
 214    0.0020611757985387
 215    0.0011795519333184
 216    -0.00012545014887865
 217    0.00010801575708342
 218     8.59008713702e-05
 219    6.3788302270308e-05
 220    0.00021034487271115
 221    0.00017431194019662
 222    0.00022580556820814
 223    0.00024112013909715
 224    -0.00056735811231736
 225    -0.00010235875221385
 226    4.6418801654761e-05
 227    -2.8769971982325e-05
 228    -1.3304252263095e-07
 229    -1.0816944310504e-05
 230    -3.7359994293599e-05
 231    4.9608773994077e-05
 232    7.653517577927e-05
 233    0.0049356764291642
 234    0.0043371132492021
 235    -0.029260243306594
 236     0.038075044621239
 237     0.043168457722307
 238    -0.0098780720601285
 239     0.020106943918041
 240     0.028006938136545
 241    -0.005158315359663
 242      0.01043244144392
 243     0.014493765448758
 244     0.013155970662227
 245    -0.026154567878945
 246    -0.036424883027863
 247     0.027376341081004
 248    -0.058586029563413
 249    -0.082667780116903
 250     0.025894175999539
 251    -0.050439007666391
 252    -0.071771876555288
 253    -0.0019135089043427
 254    0.0017050210920445
 255    -0.0028976603225704
 256    0.00067255617353033
 257    0.0011646743762235
 258    0.0013657036089687
 259    0.00041152540368897
 260     0.001424127399081
 261    -0.00084209655566619
 262    0.00056778396256364
 263    0.00043818470451699
 264    -0.0003607648811214
 265    0.0017724848518321
 266    -0.00087570148664756
 267    -0.00053972330681362
 268    0.00019182082089143
 269    -0.00018047035641218
 270    -0.00027702182212512
 271    -0.00023487755478682
 272    0.0016282691505957
 273    -0.0024538984242674
 274    -0.00030181472861227
 275    -0.0059326981328279
 276    0.0089342713254428
 277     0.013488953098933
 278    -0.0031183335748087
 279    0.0046750813677386
 280    0.0070604063018552
 281    0.0079404701814368
 282    -0.011842696348149
 283    -0.017848238439097
 284     0.016247109440201
 285    -0.024498480212119
 286    -0.036688666035017
 287     0.015168388210147
 288    -0.022203289047841
 289    -0.033773772095084
 290    0.0023869346516503
 291    0.00030236798689508
 292    0.00012785204752909
 293    2.482476216563e-05
 294    0.0015577275061577
 295    0.00066868561270543
 296    -0.00010756204034687
 297    -0.00023912337336717
 298    -6.7284464057377e-05
 299    0.0013305930035407
 300    0.00041584632080361
 301    0.00041357616801432
 302    -0.00040540843608185
 303    4.2019350351253e-05
 304    0.00031255617798249
 305    0.00033749126108475
 306    0.00032064977750743
 307    -0.00024275705643794
 308    -0.00021070047307016
 309    0.0013823363077736
 310    -0.0014245591218021
 311    -0.0015634822850767
 312    -0.0061033440420413
 313    0.00039055975031022
 314     0.016639230063282
 315    -0.0032584608853582
 316    0.00010954887292893
 317    0.0086880825438673
 318    0.0083789220254327
 319    -2.7151943014861e-05
 320    -0.021844465886963
 321     0.016225901031004
 322    -0.0016005850280688
 323    -0.045516245089069
 324       0.0158446012479
 325    -0.00065093006242425
 326    -0.040416633218244
 327    0.00094917268823268
 328    0.00044954349177739
 329     0.002068878639581
 330    -3.0377392523988e-05
 331    -0.0011611134918757
 332    0.00051358058064247
 333    0.00029427247730333
 334    0.00062132830720996
 335    0.0009643051897722
 336    -0.0017346309604268
 337    -0.0003184085956801
 338    0.0002217862295595
 339    0.00045668450413567
 340    -0.00038181436892768
 341    0.00013569591716956
 342    0.00057999814132679
 343    1.4952006234082e-05
 Sym= A
 Ene=               1
 Spin= Alpha
 Occup=    1.00000
   1    0.0013382503364042
   2    -0.0038051033312259
   3     0.011489171254398
   4     0.007173960037097
   5    -0.00028545743649382
   6    -0.0039377720459569
   7    0.0049384277792055
   8    0.0010214648479575
   9    0.00084045041400001
  10    -0.014317372730181
  11    -0.002989655509111
  12    -0.0025068102125017
  13    -0.00062619031745764
  14    0.00026919726343373
  15    0.00049702116655911
  16    -0.00060220853027267
  17     0.001850050614189
  18    -0.0077848839065152
  19    0.0014791644425974
  20    -0.001416167584993
  21    0.00016090881904132
  22    -0.0031579697645088
  23    -0.00025595517573045
  24     0.001696554210477
  25    -0.0016216109307914
  26    -0.00024227889490275
  27    -0.0034497447968777
  28    -0.00072472333920115
  29    -3.5912325786711e-05
  30    0.0012300630155154
  31    0.00025348093083958
  32    0.0010198183058524
  33    -0.00077960121695207
  34    0.0021131654485522
  35     0.006789789673436
  36     0.001042672117778
  37    -0.00010326210218417
  38    -0.0010826570395263
  39    -0.00011910088506245
  40    -0.00025084464074155
  41    -0.00010766996396539
  42    0.0001595912281965
  43    0.00016228536335318
  44    0.00033976261793854
  45    0.00024643135969238
  46    -0.003913272329633
  47    -0.0094599163166464
  48     0.012755528381326
  49     0.028338418203573
  50     0.017624497198238
  51    -0.037208609625285
  52     0.022492263903138
  53    -0.025154246826835
  54    -0.043423670990302
  55     0.022671829001655
  56    -0.024644071703222
  57    -0.061326266025919
  58     0.026715713962012
  59     -0.02490208305499
  60    0.00091235675203611
  61    -4.2435726434243e-05
  62    -0.00026317278265943
  63    -0.0011666469091781
  64    0.00041875021103778
  65    -0.00012025856011631
  66    -0.003561820818525
  67    0.00032178724294209
  68    -0.00057984813176646
  69    0.00060405532655139
  70    0.00024230229939103
  71    -0.00022839579978999
  72    -0.00015069084867405
  73    -0.00019658313640277
  74    0.00036733220129231
  75    -0.00040425770991548
  76    0.00020119785815782
  77    -0.0014111971943933
  78    0.0035249931754893
  79    -0.012931454975359
  80    -0.0032696948533093
  81    0.0056345695375068
  82    0.0030300408206579
  83     0.014287975783775
  84    -0.0093830105593609
  85    0.0072025634838702
  86    -0.041554781769891
  87      0.02747805030945
  88    -0.021058335963312
  89    0.0057484840751156
  90    -0.0039189729248811
  91    0.0018040476871318
  92     0.016972829740702
  93    -0.023767569292767
  94     0.028589614044565
  95      0.18264370083182
  96      0.40610052330318
  97     -0.38579660027995
  98     0.053813893938944
  99     -0.25247756876067
 100      0.11619882983464
 101      0.25658061220872
 102     -0.24589634081646
 103     0.034960751344492
 104     -0.15999076093742
 105     0.045962521317929
 106     0.092667647166894
 107     -0.08673370209241
 108    0.0058848950377144
 109    -0.054556461567436
 110    -0.0024328177582655
 111    0.00020802840470649
 112    0.0050986171197409
 113    -0.0022805136231205
 114    0.0024547802147452
 115    0.0015061994561118
 116    0.0011873138757841
 117    -0.0011899353383822
 118    -0.0014061624217249
 119    -0.00095670119707765
 120    0.00045064429441836
 121    0.00082125307285063
 122    0.00023870067900299
 123    0.00026063661113061
 124    -0.0014173398057035
 125    0.0011368995639706
 126    0.0054817566830261
 127    -0.00014299370659128
 128    -0.00043685056348602
 129    0.00090201843121936
 130    -4.282276945559e-05
 131    -0.00017966621016669
 132    0.00044046610169372
 133    -4.814791002112e-05
 134    0.00040154503568827
 135    -0.0011168245206073
 136    0.0008960837739582
 137    0.0016796867227509
 138    -0.0027411354563306
 139    -0.0035643406023869
 140    0.0013777673019369
 141    -0.0048961460159201
 142    -0.00016028304756649
 143    -0.00054364513713803
 144    0.00018446140559092
 145    -0.00018779921901945
 146    0.00032038807553668
 147    3.8265446991027e-05
 148    0.00014952563473874
 149    -0.00034231798591433
 150    0.00022591852434039
 151    -0.00020165288883665
 152    1.331848010889e-05
 153    6.1800636555533e-05
 154    6.4748388039575e-05
 155    1.9941404790548e-05
 156    1.8690479475328e-05
 157    -2.6887722656572e-05
 158    -4.7260862631384e-06
 159    0.00019365280881516
 160    0.00018695923767458
 161    -0.0011479493671888
 162    0.0013998970827478
 163    0.0030274159101158
 164    0.00088729389475544
 165    -8.959465603161e-05
 166    -0.00071504598385063
 167    0.00050518303048308
 168    -7.4318988040027e-05
 169    -0.00039060529210088
 170    -0.001354301319003
 171    0.00022251872668674
 172    0.00098897667681971
 173    -0.0022588377476527
 174    -3.2562579751534e-05
 175    0.0018417286190345
 176    -0.0011462711450979
 177    0.0012445009179015
 178    0.0024271260192463
 179    5.454088055438e-05
 180    7.4471577063642e-05
 181    -1.0167289019028e-05
 182    -7.6604896608276e-05
 183    -3.8001778405651e-05
 184    0.00050882452487571
 185    0.00059304574795244
 186    0.0001809045688202
 187    -0.00079815287216299
 188    0.00046334837480014
 189    5.2029199050762e-05
 190    -4.2270952516194e-05
 191    3.8030848931479e-05
 192    -7.5926376981124e-05
 193    4.2225468093262e-06
 194    2.5958489454469e-05
 195    -4.063931870467e-05
 196    3.8487245373471e-05
 197    6.8194130257195e-05
 198    -0.00020623930277534
 199    -0.00045106090851062
 200    0.0031032916826089
 201    -0.00033388859523167
 202    0.00042732543182596
 203    -0.00053117287955314
 204    -0.00020730751502366
 205    0.00020989579504845
 206    -0.00024934191891603
 207    0.00053725229143955
 208    -0.00051628281428808
 209    0.00058202771106253
 210    0.00062788851896391
 211    -0.0011915594524103
 212    0.0016744558222064
 213    0.0013865807072753
 214    -0.0020471626885293
 215      0.00101305789847
 216    7.0806659839858e-05
 217    0.00010414838593202
 218      5.7703520759e-05
 219    3.6660140990613e-05
 220    -4.520763413955e-05
 221    -8.3555131421937e-05
 222    8.5721524371207e-06
 223    -0.00020062559252788
 224    1.4797307249933e-05
 225    -0.00057937340674022
 226    -3.3622594274273e-05
 227    -2.1537808788451e-06
 228    5.3320195737552e-06
 229    -6.6597622008132e-05
 230    1.1501651175093e-05
 231    -7.1622928165271e-05
 232    3.1226818017654e-05
 233    0.0016938827495139
 234    0.0014624248167376
 235    -0.010078833257007
 236     0.014149705449106
 237     0.011337112103918
 238    0.0080275236669866
 239    -0.0053756657358209
 240     0.017332327449287
 241    0.0041899651784635
 242    -0.0027753499635919
 243    0.0091024701719872
 244    -0.010630792990208
 245    0.0069979486562692
 246    -0.023167856303857
 247    -0.021885726146642
 248     0.014197665987597
 249    -0.048853552085852
 250    -0.021182796786121
 251     0.012857158471853
 252     -0.04256708332938
 253    -0.0025695883907287