[Molden Format]
made by pyscf v[2.0.1]
[Atoms] (AU)
Fe   1   26     3.17068844873907     0.00098706064664     0.12237737881307
Fe   2   26    -3.17068844873907    -0.00098706064664     0.12237737881307
O   3   8     0.00000000000000     0.00000000000000    -0.89004350580623
Cl   4   17     3.53383895113107    -2.07485195383062     3.76228752659000
Cl   5   17     5.54152580550813    -1.85590924879884    -2.78672786652360
Cl   6   17     4.48169216485503     3.92976278472880    -0.95330240907949
Cl   7   17    -3.53383895113107     2.07485195383062     3.76228752659000
Cl   8   17    -5.54152580550813     1.85590924879884    -2.78672786652360
Cl   9   17    -4.48169216485503    -3.92976278472880    -0.95330240907949
[GTO]
1 0
 s    6 1.00
          60923.640643  0.0017552243692958
          9147.8893982   0.013449023284001
          2081.3505927   0.066678874640978
          587.55977067    0.23176348548844
           191.0904399    0.46945550248188
          65.732730112     0.3596824938678
 s    3 1.00
          127.25891928   -0.10723431835929
           14.83091301    0.62971616328466
          6.0653307408    0.44472317896179
 s    3 1.00
           10.44994371   -0.21694289195548
          1.7245228003    0.69457867408393
         0.71772177325    0.43298308896347
 s    1 1.00
        0.091449828308                   1
 s    1 1.00
        0.033706691021                   1
 p    5 1.00
          773.43750995  0.0091440529992506
          182.15149714   0.067887577136571
          57.547272758    0.26167978878504
          20.614988935    0.51088040113251
           7.634855789    0.33235475570224
 p    3 1.00
           3.871932799    0.33193859098144
          1.4924724132     0.5553666555499
         0.56061284958    0.23106034201617
 p    1 1.00
              0.134915                   1
 d    4 1.00
          38.968133419   0.033335938558743
          10.800067078    0.17766212505983
          3.6136457999      0.441281781625
          1.2129967888    0.57089200490673
 d    1 1.00
          0.3652439317                   1
 f    1 1.00
                 1.598                   1

2 0
 s    6 1.00
          60923.640643  0.0017552243692958
          9147.8893982   0.013449023284001
          2081.3505927   0.066678874640978
          587.55977067    0.23176348548844
           191.0904399    0.46945550248188
          65.732730112     0.3596824938678
 s    3 1.00
          127.25891928   -0.10723431835929
           14.83091301    0.62971616328466
          6.0653307408    0.44472317896179
 s    3 1.00
           10.44994371   -0.21694289195548
          1.7245228003    0.69457867408393
         0.71772177325    0.43298308896347
 s    1 1.00
        0.091449828308                   1
 s    1 1.00
        0.033706691021                   1
 p    5 1.00
          773.43750995  0.0091440529992506
          182.15149714   0.067887577136571
          57.547272758    0.26167978878504
          20.614988935    0.51088040113251
           7.634855789    0.33235475570224
 p    3 1.00
           3.871932799    0.33193859098144
          1.4924724132     0.5553666555499
         0.56061284958    0.23106034201617
 p    1 1.00
              0.134915                   1
 d    4 1.00
          38.968133419   0.033335938558743
          10.800067078    0.17766212505983
          3.6136457999      0.441281781625
          1.2129967888    0.57089200490673
 d    1 1.00
          0.3652439317                   1
 f    1 1.00
                 1.598                   1

3 0
 s    5 1.00
          2266.1767785  -0.0053893503921743
          340.87010191   -0.04023472138896
          77.363135167   -0.18008184205526
           21.47964494   -0.46828857657651
          6.6589433124   -0.44692617160187
 s    1 1.00
         0.80975975668                   1
 s    1 1.00
         0.25530772234                   1
 p    3 1.00
          17.721504317   0.062630248763161
           3.863550544    0.33331138482352
          1.0480920883    0.74148638308122
 p    1 1.00
         0.27641544411                   1
 d    1 1.00
                   1.2                   1

4 0
 s    5 1.00
          10449.827566  0.0054265953789407
          1571.7365221   0.040626378128836
          357.12065523    0.18359747852877
          100.25185935    0.47438948768198
          30.812727554    0.43735181104122
 s    3 1.00
          51.923789434  -0.092754154848099
          5.7045760975    0.56380825544207
          2.3508376809    0.50367044629712
 s    1 1.00
         0.44605124672                   1
 s    1 1.00
          0.1684885619                   1
 p    5 1.00
          307.66790569  -0.0088797025588865
          72.102015515  -0.064284071721237
          22.532680262   -0.24288739736006
          7.8991765444   -0.48340836369878
          2.8767268321   -0.38952563875509
 p    1 1.00
         0.77459363955                   1
 p    1 1.00
         0.21037699698                   1
 d    1 1.00
                  0.65                   1

5 0
 s    5 1.00
          10449.827566  0.0054265953789407
          1571.7365221   0.040626378128836
          357.12065523    0.18359747852877
          100.25185935    0.47438948768198
          30.812727554    0.43735181104122
 s    3 1.00
          51.923789434  -0.092754154848099
          5.7045760975    0.56380825544207
          2.3508376809    0.50367044629712
 s    1 1.00
         0.44605124672                   1
 s    1 1.00
          0.1684885619                   1
 p    5 1.00
          307.66790569  -0.0088797025588865
          72.102015515  -0.064284071721237
          22.532680262   -0.24288739736006
          7.8991765444   -0.48340836369878
          2.8767268321   -0.38952563875509
 p    1 1.00
         0.77459363955                   1
 p    1 1.00
         0.21037699698                   1
 d    1 1.00
                  0.65                   1

6 0
 s    5 1.00
          10449.827566  0.0054265953789407
          1571.7365221   0.040626378128836
          357.12065523    0.18359747852877
          100.25185935    0.47438948768198
          30.812727554    0.43735181104122
 s    3 1.00
          51.923789434  -0.092754154848099
          5.7045760975    0.56380825544207
          2.3508376809    0.50367044629712
 s    1 1.00
         0.44605124672                   1
 s    1 1.00
          0.1684885619                   1
 p    5 1.00
          307.66790569  -0.0088797025588865
          72.102015515  -0.064284071721237
          22.532680262   -0.24288739736006
          7.8991765444   -0.48340836369878
          2.8767268321   -0.38952563875509
 p    1 1.00
         0.77459363955                   1
 p    1 1.00
         0.21037699698                   1
 d    1 1.00
                  0.65                   1

7 0
 s    5 1.00
          10449.827566  0.0054265953789407
          1571.7365221   0.040626378128836
          357.12065523    0.18359747852877
          100.25185935    0.47438948768198
          30.812727554    0.43735181104122
 s    3 1.00
          51.923789434  -0.092754154848099
          5.7045760975    0.56380825544207
          2.3508376809    0.50367044629712
 s    1 1.00
         0.44605124672                   1
 s    1 1.00
          0.1684885619                   1
 p    5 1.00
          307.66790569  -0.0088797025588865
          72.102015515  -0.064284071721237
          22.532680262   -0.24288739736006
          7.8991765444   -0.48340836369878
          2.8767268321   -0.38952563875509
 p    1 1.00
         0.77459363955                   1
 p    1 1.00
         0.21037699698                   1
 d    1 1.00
                  0.65                   1

8 0
 s    5 1.00
          10449.827566  0.0054265953789407
          1571.7365221   0.040626378128836
          357.12065523    0.18359747852877
          100.25185935    0.47438948768198
          30.812727554    0.43735181104122
 s    3 1.00
          51.923789434  -0.092754154848099
          5.7045760975    0.56380825544207
          2.3508376809    0.50367044629712
 s    1 1.00
         0.44605124672                   1
 s    1 1.00
          0.1684885619                   1
 p    5 1.00
          307.66790569  -0.0088797025588865
          72.102015515  -0.064284071721237
          22.532680262   -0.24288739736006
          7.8991765444   -0.48340836369878
          2.8767268321   -0.38952563875509
 p    1 1.00
         0.77459363955                   1
 p    1 1.00
         0.21037699698                   1
 d    1 1.00
                  0.65                   1

9 0
 s    5 1.00
          10449.827566  0.0054265953789407
          1571.7365221   0.040626378128836
          357.12065523    0.18359747852877
          100.25185935    0.47438948768198
          30.812727554    0.43735181104122
 s    3 1.00
          51.923789434  -0.092754154848099
          5.7045760975    0.56380825544207
          2.3508376809    0.50367044629712
 s    1 1.00
         0.44605124672                   1
 s    1 1.00
          0.1684885619                   1
 p    5 1.00
          307.66790569  -0.0088797025588865
          72.102015515  -0.064284071721237
          22.532680262   -0.24288739736006
          7.8991765444   -0.48340836369878
          2.8767268321   -0.38952563875509
 p    1 1.00
         0.77459363955                   1
 p    1 1.00
         0.21037699698                   1
 d    1 1.00
                  0.65                   1

[5d]
[7f]
[9g]

[MO]
 Sym= A
 Ene=               0
 Spin= Alpha
 Occup=    1.00000
   1     0.012019986484263
   2    -0.036230749931453
   3      0.14849986709366
   4     -0.12064021802496
   5     0.017112295997888
   6     0.041642408185832
   7     0.001569188078082
   8     0.014572201589752
   9      -0.1278031099737
  10    -0.0049095927632525
  11     -0.04487907844733
  12     0.084042580623295
  13    0.0092726527659306
  14     0.028197423823021
  15     0.024369237358439
  16    -0.038923820669307
  17    0.00022928370107573
  18    -0.056605790478858
  19    0.0025029404172787
  20     0.022931619805067
  21    -0.025953306844549
  22    0.00046481263623788
  23    -0.048672912570724
  24    0.0022899397255992
  25    -0.0033920578521885
  26    -0.0019591552535178
  27    -0.00038486388496155
  28    0.0049563801874223
  29    0.00025674353927173
  30    0.0053929666399043
  31    0.00024422678292472
  32    -0.0040948916006139
  33     0.011296742399007
  34    -0.058000200878486
  35     0.067614605324641
  36    -0.0029844652451557
  37    0.0097809108308627
  38    0.0015369819977829
  39    -0.0043100308287013
  40    -0.035624955078997
  41    -0.0048923474658367
  42     0.014482619088216
  43     0.047955266655042
  44     0.011995663812256
  45    0.00031753401033726
  46     0.013036678452685
  47      0.01154934331899
  48    0.0021636093307124
  49    -0.024643662679808
  50    -0.0016693734971037
  51     -0.01666014697911
  52     0.016485489962923
  53    0.0063059641591637
  54     0.022498764412202
  55    -0.010620778362878
  56    0.0011991399612303
  57    -0.00033560075657886
  58    -0.00021413526892315
  59    -0.0018000313879884
  60    -0.0001480324720287
  61    0.0015549265939093
  62    0.00031867914267055
  63    0.0055043660288297
  64     -0.38746974291308
  65     -0.30691257654282
  66     -0.39594591235233
  67     0.051871847090724
  68    -0.0089230893356666
  69     -0.33578568678566
  70     0.049846148621237
  71    -0.019466757708723
  72    0.0037681216250612
  73    -0.0072842212571493
  74    0.0014260525077433
  75    -0.0099547316213697
  76    -0.00037673734864879
  77    0.00086756451757936
  78    -0.0058810546934509
  79    0.0093466028355955
  80    0.0084107340207167
  81    -0.0048979870343783
  82    0.0034658795789251
  83    -0.0081657719012953
  84    -0.0080307283225953
  85    0.0061910882479707
  86    -0.014059935428015
  87    -0.018305528584544
  88    0.0083685438148959
  89    -0.023888730832336
  90    -0.00075564713672114
  91    -0.00089591581137643
  92    0.0011866371812153
  93    -1.6416085688932e-06
  94    7.8682172634487e-05
  95    0.0012603243040137
  96    -0.0086540394165313
  97     0.015098119776246
  98      0.00861884423022
  99    -0.012170712695601
 100    0.0029452604452797
 101     0.004131574587687
 102    -0.021325488423921
 103     0.005363778681481
 104    0.0073425272838345
 105    -0.036416847855849
 106    0.0075147569423525
 107     0.010574636883612
 108    0.0011978439761634
 109    0.00032528568757762
 110    9.3307535951379e-05
 111    -0.0020278175382693
 112    0.00064419493130535
 113    0.0010440412809858
 114    -0.0072320070943001
 115     0.012340279746323
 116    0.0075057561725044
 117    -0.0090319854619895
 118    -0.0072426525298487
 119    0.00019827896511305
 120    -0.015023673981271
 121    -0.013059732277527
 122    0.00069224687691141
 123    -0.030235461512025
 124    -0.018804131021771
 125    -0.001862976907529
 126    0.0010161887292261
 127    -0.00031873165339862
 128    0.00056655308874025
 129    -5.4203946333101e-06
 130    -0.0017195522634899
 131    -0.00034736648057819
 132    0.0023030465965368
 133    -0.0012169087192631
 134    -0.014079966659306
 135    0.00077057023003815
 136    0.00045188920863039
 137    0.0022739199061425
 138    0.0014128546469124
 139    0.00076788729929873
 140    0.0035809442908558
 141    -0.0024043947225183
 142    0.0031577796701656
 143      0.01204650651392
 144    0.0010106335431483
 145    -0.00098377058305622
 146     0.001463945075486
 147    -0.00054839054365594
 148    -0.00021106055872896
 149    -0.00091937018295876
 150    0.0062320848867398
 151    -0.010934455332734
 152    -0.0046153004798188
 153    -0.0043946651581261
 154    0.0018558905271049
 155    -0.0029066519699283
 156    -0.0088883657976332
 157    0.0036479705085901
 158    -0.0049668221153805
 159     -0.01090861199854
 160    0.0038208532197459
 161    -0.0095983200478342
 162    -0.0024460076890609
 163    0.0005381757391882
 164    0.0011234225212606
 165    0.0024469343057629
 166    -0.00089417208208641
 167    -0.00037773683110869
 168     0.002534290240344
 169    -0.0052048800918813
 170    -0.00051959927611297
 171    1.2679506754349e-05
 172    -0.0024386635538152
 173    4.9985885897935e-05
 174    1.4285047435463e-05
 175    -0.0050374177424273
 176    -8.8906108303093e-05
 177    -0.0025477462796015
 178    -0.0029037682151672
 179    0.0012127941868131
 180    -0.0010721772788944
 181    0.00021999656541863
 182    0.00077615193699239
 183    -0.00084380114233495
 184    0.0025991895754841
 Sym= A
 Ene=               1
 Spin= Alpha
 Occup=    1.00000
   1    -0.0034341382037846
   2     0.010116520679247
   3    -0.043706714913969
   4      0.04208036563531
   5    -0.025343705731958
   6    -0.013295755309501
   7     0.011698157704974
   8    0.0080409645930501
   9     0.042420749697495
  10    -0.036890371254037
  11    -0.025315484817202
  12     -0.04060638466489
  13     0.063548280076914
  14     0.060766992056937
  15    -0.088694623586376
  16    -0.061357864175928
  17    -0.027404286696386
  18      0.11233881342168
  19     -0.12750418347956
  20    -0.038148792171755
  21    -0.036840715793727
  22    -0.014229796090726
  23     0.043523391942452
  24    -0.062808679559777
  25    -0.0004810592283051
  26    0.0023484939629784
  27    -0.00042992619391482
  28    0.00074045817818663
  29    0.0011581438053711
  30    -0.0017497972972067
  31    0.0025820578936009
  32    -0.0016779851616478
  33    0.0048602119310141
  34    -0.021843950075516
  35     0.033178878207526
  36    -0.017603270488632
  37    0.0079182339613492
  38    0.0096157554685431
  39    0.0076193222170484
  40     -0.02527294435216
  41    -0.030671439054301
  42    -0.024378535740892
  43     0.034181373578664
  44      0.07680078516272
  45     0.077773977288702
  46    0.0028331550384027
  47    0.0062908658743311
  48    0.0020761443705413
  49    -0.0010546584652721
  50    -0.001371958190955
  51     0.059031355424585
  52    -0.068926316212793
  53      0.03262419029962
  54    -0.024201365816185
  55    -0.076245619660172
  56    -0.000686856842551
  57    -0.0023753847947063
  58    -0.00027723642290097
  59    0.0012696396202504
  60    -0.0015141297922766
  61    0.0010588522262041
  62    0.0026248814384315
  63    -0.011325457472491
  64     -0.04333139128166
  65    -0.024571062664261
  66     0.043302982289325
  67      0.39124302852458
  68      0.38942698954293
  69     0.040354381784265
  70       0.3562376958368
  71      0.35509902311625
  72     0.012288536695286
  73    -0.0040672935086555
  74     0.010152231134034
  75    -0.0010297568209348
  76    -0.0058004307699354
  77    -0.0003512423946847
  78     0.002536770067661
  79    -0.0063537484715843
  80    -0.0010502479987892
  81    0.0033370945012844
  82    -0.0037440275980503
  83    -0.00062540892177543
  84    0.0058143860621573
  85    -0.0057973897929916
  86    -0.00062888364988418
  87      0.01109444652077
  88    -0.017624862750601
  89    -0.0018272051949983
  90    -0.00044751795877944
  91    0.00047139521231719
  92    -0.00034149405296814
  93    0.00082947562825595
  94    -0.0012893410503698
  95    0.00046049788775819
  96    -0.0030304426872065
  97    0.0012791286884959
  98     0.028882158237634
  99    -0.010749389479463
 100    -0.0038621733927725
 101    -0.0082274896657714
 102    -0.018937917447602
 103    -0.0067775528956474
 104    -0.014786232485202
 105    -0.035222128160549
 106    -0.0053601269218534
 107    -0.011103988366899
 108    0.0022896627957498
 109    -0.00034039304506072
 110    0.0012127466905828
 111    -0.0023670824371425
 112     0.000110146542917
 113    -0.00076710097736572
 114    0.0053912760516069
 115    -0.011891433109963
 116    -0.0031241089303005
 117    0.0087831936436567
 118    -0.00053193984465908
 119    -0.002340470733289
 120     0.015697512121476
 121    -0.00048668887764892
 122    -0.0033868180572285
 123     0.025790947261486
 124    0.0011667974131593
 125     -0.01288553559366
 126    -0.0015227674957592
 127    -0.00072381122868118
 128    0.00036148047727708
 129     0.002198044254968
 130    0.0020311748024356
 131    -0.0025091694439323
 132     0.016857043787919
 133    -0.017920912188253
 134    -0.055617434185595
 135    -0.008853945146628
 136    0.0054194301499047
 137     0.013681224727867
 138    -0.018941961816544
 139     0.007830808293442
 140     0.021489095399949
 141    -0.013565848418128
 142     0.035878954984452
 143     0.074439173335142
 144    -0.0089968003865409
 145    -0.0065157926647334
 146    -0.010874428798094
 147    0.0057748423317882
 148    -0.0025067615909615
 149    0.00030235554853507
 150    -0.0019901441729838
 151    -0.00083355559117064
 152     0.018658546590038
 153     0.000227581432547
 154    -0.0036057420520213
 155    -0.0012795749903685
 156    0.0011516368058917
 157    -0.0039905125609948
 158    -0.0021221042058706
 159    0.0018484311953056
 160    -0.027018655089203
 161    0.0001692278914577
 162    7.6085799882264e-06
 163    0.0016225990469269
 164    -0.0050614656906679
 165    -0.0028543797853342
 166    -0.0010752846622256
 167    0.0017798126760515
 168    -0.011784312707972
 169    0.0099953638605542
 170     0.047019339129077
 171    0.0069397574401544
 172     0.007858309299792
 173    -0.00097508864870983
 174     0.015192972062761
 175     0.010634258794017
 176    -0.0030696953239349
 177      0.01297344319564
 178     0.053913756751361
 179    0.0062518740553658
 180    -0.0017376910007059
 181    0.0014338878291957
 182    0.0060038868489992
 183    -0.010636082259995
 184    -0.0035060005392666
 Sym= A
 Ene=               2
 Spin= Alpha
 Occup=    1.00000
   1    0.0012801230930734
   2      -0.0038244922616
   3     0.017002803109352
   4    -0.029381023318891
   5     0.011503082513288
   6      0.00172166353479
   7    0.00061180245760853
   8    -0.004322066430911
   9    -0.0053823142550451
  10    -0.0019057567713184
  11     0.013422872361501
  12    0.0043025053626019
  13    0.00021042832338754
  14    -0.018259625462257
  15       0.2303878019939
  16     -0.41904290883991
  17     -0.48266992652229
  18       0.4540243595768
  19      0.31796323717887
  20     0.060245164097924
  21     -0.11470452059096
  22     -0.12957818140376
  23        0.124243976971
  24     0.088853283320661
  25    0.00091335392807377
  26    -0.00072148607733388
  27    -0.00095252731748325
  28    0.00010907133836923
  29    -0.00031336138168087
  30    0.00089489910111643
  31    0.00036335813001802
  32    7.9452163582182e-05
  33    -0.0002554853121208
  34    0.0011704265869769
  35    -0.0015909291416277
  36    -0.00018155524716362
  37    -0.00069731071860033
  38    -0.00036926680859515
  39    -0.00050565783214053
  40    0.0022224266201041
  41    0.0011574534573296
  42    0.0016411719205208
  43    -0.001488573711605
  44    -0.0029018008698722
  45    -0.0049160581103025
  46    -8.1140099366593e-06
  47    -0.00037109731895615
  48    -1.0523523600423e-05
  49    -0.00017516625356844
  50    9.3116666355858e-05
  51    -0.0041081949542581
  52     0.004182978725737
  53    -0.0015189453420108
  54    0.0024316029619769
  55    0.0032320423379314
  56    5.0329604350414e-05
  57    0.00014160438297739
  58    2.4980475332344e-05
  59    -8.1313511451105e-05
  60    6.8912026946868e-05
  61    -4.2171856752562e-05
  62    -0.00012434226803191
  63    -0.00023778516845245
  64    1.0539306313154e-05
  65    -0.0031696572505715
  66    -0.0044112893635771
  67    -0.019277885807758
  68    -0.020256269855597
  69    -0.0041464422934531
  70    -0.015375963475432
  71    -0.023741400168642
  72    7.4776981098426e-05
  73    0.0010647738326681
  74    -0.0010037483897393
  75    0.00020629184684805
  76    7.4118642504841e-05
  77    -0.001596837916637
  78        0.010500091147
  79     -0.01368383454941
  80    -0.0088737730801794
  81     0.017639937816122
  82    -0.0097088842701598
  83     0.011289234195088
  84     0.030026140264817
  85    -0.016711545561676
  86     0.019666345649736
  87     0.048978799293198
  88    -0.027437033296733
  89     0.032469864834125
  90    -0.00060106344884867
  91    0.0020000707560974
  92    -0.00049377208291762
  93    0.00094762937738208
  94    -0.0011333806382598
  95    0.00039273102213533
  96    -0.0025896731349743
  97    0.0047271125112068
  98    -0.001708397748491
  99    -0.013168746756304
 100       -0.024636559771
 101     0.010940445920521
 102    -0.022278463493037
 103    -0.041515068381529
 104     0.018394553371586
 105    -0.036078709290611
 106    -0.070318859392519
 107     0.030510318108336
 108    -0.00078788297275991
 109    0.0012745838553678
 110    0.0017483300162294
 111    -0.0019907390468074
 112    -0.0013342669779715
 113    0.00038984034247079
 114    -0.0025808009466473
 115    0.0046456983500362
 116    0.00026182063252593
 117    -0.015657436562912
 118    0.0071096259014509
 119     0.021736626730251
 120    -0.026392184219891
 121     0.011989967108415
 122     0.036438829698786
 123    -0.044023526042665
 124     0.020104229923312
 125     0.061913215293876
 126    -0.00086957946290929
 127    0.0012759956445455
 128    0.0014341326146458
 129    -0.0020365670486642
 130    -0.0011104778640194
 131    0.00020567598424005
 132    -0.001380703087375
 133    0.0021144908090848
 134     0.002324508887859
 135    0.0011199704084062
 136    -0.00047619927320105
 137    -0.0007970640599637
 138    0.0022457551340565
 139    -0.00080570032274481
 140    -0.0012605296243201
 141    0.0018217044393488
 142    -0.0022868411563645
 143    -0.0041422559275448
 144    0.00052358960563276
 145    0.00041236914349669
 146    0.0005206565461018
 147    -0.00033023662614177
 148    0.00022111984326618
 149    -5.084236386872e-05
 150    0.00033999038329641
 151    -0.00039620580191116
 152    -0.001198545558684
 153    -0.00057282746499763
 154    0.00016653044113973
 155    0.00040276076456784
 156    -0.0010223365151287
 157    0.00019327986078694
 158    0.00068079548664347
 159    -0.0017216598912353
 160    0.0013689779930945
 161    0.00063439248461755
 162    3.9313427665238e-05
 163    -9.6292252884847e-05
 164    0.00020435745178038
 165    0.00013823522894784
 166    4.8861331501011e-05
 167    -5.6341919701406e-05
 168    0.00037826379374575
 169    -0.00011254888886229
 170    -0.0022622041260631
 171    -3.4822243597949e-05
 172    -0.00027666455274527
 173    0.00025351213517903
 174    -0.00014570214469469
 175    -0.00036502924593062
 176    0.00050998827276507
 177    -0.00017787471042725
 178    -0.0021703909831428
 179    0.0002962744388247
 180    8.0197187100624e-05
 181    -0.00011666286588544
 182    -0.00031771162769572
 183    0.00047080712318251
 184    0.00011294773177169
 Sym= A
 Ene=               3
 Spin= Alpha
 Occup=    1.00000
   1    -0.0013976691193448
   2    0.0041352606195823
   3    -0.018353953799562
   4     0.029088419321368
   5    -0.009777085262605
   6    -0.0018762965756993
   7    0.0083002015184615
   8    0.0051705696478594
   9    0.0059855400565269
  10     -0.02562366782036
  11    -0.015940638636837
  12    -0.0041011535506503
  13      0.03351499108635
  14     0.025504647589511
  15      0.53422191599279
  16      0.12405600295465
  17      0.54779669120565
  18      0.18801193418728
  19      0.35119315604312
  20      0.14238337597145
  21     0.031699286474683
  22       0.1468271294387
  23     0.050557448268469
  24     0.093883027298354
  25    0.00068765442140878
  26     0.001363351469746
  27    0.00075978981484964
  28     0.000708672221976
  29    0.0014356297744513
  30    -5.1598094364965e-05
  31    0.0011404710743329
  32    -0.00034102579223349
  33    0.0009969419158416
  34    -0.0047463546332507
  35    0.0075345488072591
  36    -0.0028088891959753
  37    0.0018133293614554
  38    0.0018453607614514
  39    0.0012643995007283
  40     -0.00583591983667
  41    -0.005909287208977
  42    -0.0040423830403388
  43     0.006307465121923
  44       0.0144678097869
  45     0.013859546587726
  46    0.00035055092565653
  47     0.001293922504077
  48    0.00025598559302262
  49    -0.00031645070917308
  50    0.00012159163311011
  51     0.011228771092485
  52    -0.012543584452268
  53    0.0065725069468825
  54    -0.0045819069727567
  55     -0.01579872290174
  56    -0.00011792493626039
  57    -0.00043216054597237
  58    -7.0474586242931e-05
  59    0.00023068100769961
  60    -0.00030063449267314
  61    0.00019294178166997
  62    0.00050559674919416
  63    -0.0037208848888053
  64    -0.012367010123024
  65    -0.0080661346361318
  66    0.0049883037387725
  67     0.068935264230751
  68     0.068020469793014
  69    0.0027211970085805
  70      0.06882032908001
  71     0.065720006239211
  72    0.0019279628914499
  73    -0.0016421902104786
  74    0.0016097972531769
  75    0.00018924406715875
  76    -0.0025284660659496
  77    0.00033677821217492
  78    -0.0021917526094041
  79    0.0023603552599637
  80    0.0013638673763065
  81    0.0020908494355942
  82    -0.024200460205911
  83    -0.017913705419233
  84     0.003539542840413
  85     -0.04076399288195
  86    -0.030519167961341
  87    0.0061290065280426
  88     -0.06973264468282
  89    -0.050553804238908
  90    -0.0029540602784786
  91    0.0003060814597787
  92    -0.0015570034092827
  93    -0.0015318493553707
  94    -0.00027827811657903
  95    -0.0013286780608043
  96    0.0087805818455732
  97    -0.013566826167772
  98    -0.0007673887097636
  99     0.020253475087887
 100    -0.013667168350448
 101    0.0056590923905666
 102     0.034487154154459
 103    -0.023195082074573
 104    0.0092766193246878
 105     0.055300926498445
 106    -0.038793086357848
 107     0.016865039274903
 108    -0.0023903936522034
 109    0.00021925222378669
 110    -4.9788242906499e-05
 111    0.00061589670566838
 112    -0.0011275752834953
 113    0.0018814777419961
 114    -0.012301010635501
 115     0.015837358435681
 116     0.009530135898858
 117    -0.016351155779333
 118    -0.018037191173055
 119    -0.0078507717770729
 120    -0.027697246667419
 121    -0.030764037987616
 122    -0.013164843568098
 123    -0.045524312591762
 124    -0.051805024033636
 125    -0.022755055448272
 126    0.00092602088416813
 127    -9.0743020064793e-05
 128    -0.0016749707103658
 129    -0.00073708105342363
 130    -0.00077481741874408
 131    -0.00050775483000518
 132    0.0033722100708935
 133    -0.0035023331265608
 134    -0.010792996923999
 135    -0.0024728225337944
 136    0.0008523795242436
 137    0.0029762429283959
 138    -0.0048353422704587
 139    0.0011484707491153
 140    0.0047683536236733
 141    -0.0048890197478105
 142    0.0064293214320742
 143     0.014893975055287
 144    -0.0015637959049634
 145    -0.0012755755871717
 146    -0.001902577353328
 147    0.0010483093047588
 148    -0.00045685120067011
 149    1.4837766902718e-05
 150    -0.00010324463409101
 151    -0.00049644619424665
 152    0.0028626045538195
 153    -0.00026585125746565
 154    -0.00072045907300479
 155    -0.00051735172512903
 156    -0.00037293490362128
 157    -0.00088042037818666
 158    -0.00083283029718816
 159    -0.00038659809362586
 160    -0.0048271279750191
 161    -0.0010396982948521
 162    -9.4522793434087e-05
 163    0.00032222222220752
 164    -0.00081668437990206
 165    -0.00041016981361771
 166    -0.00020770712544445
 167    0.00036116783889643
 168    -0.0023898039916967
 169    0.0023705938893342
 170     0.008335183027935
 171    0.0023828624086175
 172    0.0016029185867463
 173    -0.00055372366161584
 174    0.0046684313580323
 175    0.0022970508899444
 176    -0.0012156273136502
 177    0.0051744493301875
 178     0.010022110581459
 179    0.00030049348188257
 180    -0.00032211974529853
 181    0.00033389787039418
 182    0.0010829575241729
 183    -0.0019358595389669
 184    -0.00049132563880943
 Sym= A