[Molden Format]
made by pyscf v[2.2.1]
[Atoms] (AU)
Fe   1   26    10.35569916261654     2.17318504324982   -15.17450078025744
S   2   16     7.65339080448850    -1.15273293598469   -16.53510358994429
S   3   16    14.15404867299231     0.79368497231733   -17.08312416606816
Fe   4   26    11.41394579237297    -2.30546587196938   -18.19806257956155
S   5   16    10.33680190137089     2.36215765570633   -10.54467177507304
S   6   16     8.74943195673624     6.19830168857340   -16.57289811243559
S   7   16    10.86592521624911    -2.83458918684759   -22.77119980100900
S   8   16    12.96352121451632    -6.44396608476686   -16.74297346364645
C   9   6    10.41239094635349     8.40928125431453   -14.19184319548361
H   10   1    12.26432254842725     9.12737718164925   -14.96663090655529
H   11   1     9.20296622663185    10.07224024393178   -13.70051440309670
H   12   1    10.80923343251215     7.25654831832984   -12.45329516088376
C   13   6     6.80301404843422     3.21253441176060   -10.46908273009044
H   14   1     5.68807563494084     1.51178089965205   -10.99820604496866
H   15   1     6.19830168857340     3.89283581660403    -8.54156208303408
H   16   1     6.46286334601251     4.68652078892135   -11.92417184600554
C   17   6     9.84547310898397    -7.97464424566456   -17.87680913838549
H   18   1     9.63760323528181    -7.57780175950590   -19.93661061416140
H   19   1     9.84547310898397   -10.05334298268613   -17.49886391347247
H   20   1     8.25810316434932    -7.02978118338203   -16.87525429236600
C   21   6    14.41861033043142    -3.49599333044536   -23.13024776467636
H   22   1    14.92883638406399    -3.89283581660403   -25.15225471796098
H   23   1    15.49575422143351    -1.81413707958246   -22.41215183734163
H   24   1    14.90993912281834    -5.14005505881697   -21.90192578370907
[GTO]
1 0
 s    6 1.00
          60923.640643  0.0017552243692958
          9147.8893982   0.013449023284001
          2081.3505927   0.066678874640978
          587.55977067    0.23176348548844
           191.0904399    0.46945550248188
          65.732730112     0.3596824938678
 s    3 1.00
          127.25891928   -0.10723431835929
           14.83091301    0.62971616328466
          6.0653307408    0.44472317896179
 s    3 1.00
           10.44994371   -0.21694289195548
          1.7245228003    0.69457867408393
         0.71772177325    0.43298308896347
 s    1 1.00
        0.091449828308                   1
 s    1 1.00
        0.033706691021                   1
 p    5 1.00
          773.43750995  0.0091440529992506
          182.15149714   0.067887577136571
          57.547272758    0.26167978878504
          20.614988935    0.51088040113251
           7.634855789    0.33235475570224
 p    3 1.00
           3.871932799    0.33193859098144
          1.4924724132     0.5553666555499
         0.56061284958    0.23106034201617
 p    1 1.00
              0.134915                   1
 d    4 1.00
          38.968133419   0.033335938558743
          10.800067078    0.17766212505983
          3.6136457999      0.441281781625
          1.2129967888    0.57089200490673
 d    1 1.00
          0.3652439317                   1
 f    1 1.00
                 1.598                   1

2 0
 s    5 1.00
           9184.930301  -0.0054729466134731
          1381.5105503  -0.040954402155135
           313.8714758   -0.18475828956188
          88.053870623   -0.47567280643953
          27.039914905   -0.43495153584169
 s    3 1.00
          45.648731303  -0.091904045808942
          4.9664522326    0.55698777214497
          2.0116242047     0.5111546829846
 s    1 1.00
         0.35661077013                   1
 s    1 1.00
         0.13507221477                   1
 p    5 1.00
          261.98233439  -0.009183054659266
          61.306894736   -0.06590222652599
          19.103729887   -0.24587784518735
          6.6567720378    -0.4823147107602
          2.3959635161   -0.38956314351423
 p    1 1.00
         0.61776161679                   1
 p    1 1.00
         0.16993376871                   1
 d    1 1.00
                  0.55                   1

3 0
 s    5 1.00
           9184.930301  -0.0054729466134731
          1381.5105503  -0.040954402155135
           313.8714758   -0.18475828956188
          88.053870623   -0.47567280643953
          27.039914905   -0.43495153584169
 s    3 1.00
          45.648731303  -0.091904045808942
          4.9664522326    0.55698777214497
          2.0116242047     0.5111546829846
 s    1 1.00
         0.35661077013                   1
 s    1 1.00
         0.13507221477                   1
 p    5 1.00
          261.98233439  -0.009183054659266
          61.306894736   -0.06590222652599
          19.103729887   -0.24587784518735
          6.6567720378    -0.4823147107602
          2.3959635161   -0.38956314351423
 p    1 1.00
         0.61776161679                   1
 p    1 1.00
         0.16993376871                   1
 d    1 1.00
                  0.55                   1

4 0
 s    6 1.00
          60923.640643  0.0017552243692958
          9147.8893982   0.013449023284001
          2081.3505927   0.066678874640978
          587.55977067    0.23176348548844
           191.0904399    0.46945550248188
          65.732730112     0.3596824938678
 s    3 1.00
          127.25891928   -0.10723431835929
           14.83091301    0.62971616328466
          6.0653307408    0.44472317896179
 s    3 1.00
           10.44994371   -0.21694289195548
          1.7245228003    0.69457867408393
         0.71772177325    0.43298308896347
 s    1 1.00
        0.091449828308                   1
 s    1 1.00
        0.033706691021                   1
 p    5 1.00
          773.43750995  0.0091440529992506
          182.15149714   0.067887577136571
          57.547272758    0.26167978878504
          20.614988935    0.51088040113251
           7.634855789    0.33235475570224
 p    3 1.00
           3.871932799    0.33193859098144
          1.4924724132     0.5553666555499
         0.56061284958    0.23106034201617
 p    1 1.00
              0.134915                   1
 d    4 1.00
          38.968133419   0.033335938558743
          10.800067078    0.17766212505983
          3.6136457999      0.441281781625
          1.2129967888    0.57089200490673
 d    1 1.00
          0.3652439317                   1
 f    1 1.00
                 1.598                   1

5 0
 s    5 1.00
           9184.930301  -0.0054729466134731
          1381.5105503  -0.040954402155135
           313.8714758   -0.18475828956188
          88.053870623   -0.47567280643953
          27.039914905   -0.43495153584169
 s    3 1.00
          45.648731303  -0.091904045808942
          4.9664522326    0.55698777214497
          2.0116242047     0.5111546829846
 s    1 1.00
         0.35661077013                   1
 s    1 1.00
         0.13507221477                   1
 p    5 1.00
          261.98233439  -0.009183054659266
          61.306894736   -0.06590222652599
          19.103729887   -0.24587784518735
          6.6567720378    -0.4823147107602
          2.3959635161   -0.38956314351423
 p    1 1.00
         0.61776161679                   1
 p    1 1.00
         0.16993376871                   1
 d    1 1.00
                  0.55                   1

6 0
 s    5 1.00
           9184.930301  -0.0054729466134731
          1381.5105503  -0.040954402155135
           313.8714758   -0.18475828956188
          88.053870623   -0.47567280643953
          27.039914905   -0.43495153584169
 s    3 1.00
          45.648731303  -0.091904045808942
          4.9664522326    0.55698777214497
          2.0116242047     0.5111546829846
 s    1 1.00
         0.35661077013                   1
 s    1 1.00
         0.13507221477                   1
 p    5 1.00
          261.98233439  -0.009183054659266
          61.306894736   -0.06590222652599
          19.103729887   -0.24587784518735
          6.6567720378    -0.4823147107602
          2.3959635161   -0.38956314351423
 p    1 1.00
         0.61776161679                   1
 p    1 1.00
         0.16993376871                   1
 d    1 1.00
                  0.55                   1

7 0
 s    5 1.00
           9184.930301  -0.0054729466134731
          1381.5105503  -0.040954402155135
           313.8714758   -0.18475828956188
          88.053870623   -0.47567280643953
          27.039914905   -0.43495153584169
 s    3 1.00
          45.648731303  -0.091904045808942
          4.9664522326    0.55698777214497
          2.0116242047     0.5111546829846
 s    1 1.00
         0.35661077013                   1
 s    1 1.00
         0.13507221477                   1
 p    5 1.00
          261.98233439  -0.009183054659266
          61.306894736   -0.06590222652599
          19.103729887   -0.24587784518735
          6.6567720378    -0.4823147107602
          2.3959635161   -0.38956314351423
 p    1 1.00
         0.61776161679                   1
 p    1 1.00
         0.16993376871                   1
 d    1 1.00
                  0.55                   1

8 0
 s    5 1.00
           9184.930301  -0.0054729466134731
          1381.5105503  -0.040954402155135
           313.8714758   -0.18475828956188
          88.053870623   -0.47567280643953
          27.039914905   -0.43495153584169
 s    3 1.00
          45.648731303  -0.091904045808942
          4.9664522326    0.55698777214497
          2.0116242047     0.5111546829846
 s    1 1.00
         0.35661077013                   1
 s    1 1.00
         0.13507221477                   1
 p    5 1.00
          261.98233439  -0.009183054659266
          61.306894736   -0.06590222652599
          19.103729887   -0.24587784518735
          6.6567720378    -0.4823147107602
          2.3959635161   -0.38956314351423
 p    1 1.00
         0.61776161679                   1
 p    1 1.00
         0.16993376871                   1
 d    1 1.00
                  0.55                   1

9 0
 s    5 1.00
          1238.4016938  0.0055173650481097
          186.29004992   0.041088828555946
          42.251176346     0.1822538212649
          11.676557932    0.46828459437429
          3.5930506482    0.44575817336002
 s    1 1.00
         0.40245147363                   1
 s    1 1.00
         0.13090182668                   1
 p    3 1.00
          9.4680970621   0.056888332011037
          2.0103545142    0.31294059336471
         0.54771004707    0.76065016509135
 p    1 1.00
         0.15268613795                   1
 d    1 1.00
                   0.8                   1

10 0
 s    3 1.00
             13.010701   0.033485484812989
             1.9622572    0.23472187088125
            0.44453796    0.81377028525955
 s    1 1.00
            0.12194962                   1
 p    1 1.00
                   0.8                   1

11 0
 s    3 1.00
             13.010701   0.033485484812989
             1.9622572    0.23472187088125
            0.44453796    0.81377028525955
 s    1 1.00
            0.12194962                   1
 p    1 1.00
                   0.8                   1

12 0
 s    3 1.00
             13.010701   0.033485484812989
             1.9622572    0.23472187088125
            0.44453796    0.81377028525955
 s    1 1.00
            0.12194962                   1
 p    1 1.00
                   0.8                   1

13 0
 s    5 1.00
          1238.4016938  0.0055173650481097
          186.29004992   0.041088828555946
          42.251176346     0.1822538212649
          11.676557932    0.46828459437429
          3.5930506482    0.44575817336002
 s    1 1.00
         0.40245147363                   1
 s    1 1.00
         0.13090182668                   1
 p    3 1.00
          9.4680970621   0.056888332011037
          2.0103545142    0.31294059336471
         0.54771004707    0.76065016509135
 p    1 1.00
         0.15268613795                   1
 d    1 1.00
                   0.8                   1

14 0
 s    3 1.00
             13.010701   0.033485484812989
             1.9622572    0.23472187088125
            0.44453796    0.81377028525955
 s    1 1.00
            0.12194962                   1
 p    1 1.00
                   0.8                   1

15 0
 s    3 1.00
             13.010701   0.033485484812989
             1.9622572    0.23472187088125
            0.44453796    0.81377028525955
 s    1 1.00
            0.12194962                   1
 p    1 1.00
                   0.8                   1

16 0
 s    3 1.00
             13.010701   0.033485484812989
             1.9622572    0.23472187088125
            0.44453796    0.81377028525955
 s    1 1.00
            0.12194962                   1
 p    1 1.00
                   0.8                   1

17 0
 s    5 1.00
          1238.4016938  0.0055173650481097
          186.29004992   0.041088828555946
          42.251176346     0.1822538212649
          11.676557932    0.46828459437429
          3.5930506482    0.44575817336002
 s    1 1.00
         0.40245147363                   1
 s    1 1.00
         0.13090182668                   1
 p    3 1.00
          9.4680970621   0.056888332011037
          2.0103545142    0.31294059336471
         0.54771004707    0.76065016509135
 p    1 1.00
         0.15268613795                   1
 d    1 1.00
                   0.8                   1

18 0
 s    3 1.00
             13.010701   0.033485484812989
             1.9622572    0.23472187088125
            0.44453796    0.81377028525955
 s    1 1.00
            0.12194962                   1
 p    1 1.00
                   0.8                   1

19 0
 s    3 1.00
             13.010701   0.033485484812989
             1.9622572    0.23472187088125
            0.44453796    0.81377028525955
 s    1 1.00
            0.12194962                   1
 p    1 1.00
                   0.8                   1

20 0
 s    3 1.00
             13.010701   0.033485484812989
             1.9622572    0.23472187088125
            0.44453796    0.81377028525955
 s    1 1.00
            0.12194962                   1
 p    1 1.00
                   0.8                   1

21 0
 s    5 1.00
          1238.4016938  0.0055173650481097
          186.29004992   0.041088828555946
          42.251176346     0.1822538212649
          11.676557932    0.46828459437429
          3.5930506482    0.44575817336002
 s    1 1.00
         0.40245147363                   1
 s    1 1.00
         0.13090182668                   1
 p    3 1.00
          9.4680970621   0.056888332011037
          2.0103545142    0.31294059336471
         0.54771004707    0.76065016509135
 p    1 1.00
         0.15268613795                   1
 d    1 1.00
                   0.8                   1

22 0
 s    3 1.00
             13.010701   0.033485484812989
             1.9622572    0.23472187088125
            0.44453796    0.81377028525955
 s    1 1.00
            0.12194962                   1
 p    1 1.00
                   0.8                   1

23 0
 s    3 1.00
             13.010701   0.033485484812989
             1.9622572    0.23472187088125
            0.44453796    0.81377028525955
 s    1 1.00
            0.12194962                   1
 p    1 1.00
                   0.8                   1

24 0
 s    3 1.00
             13.010701   0.033485484812989
             1.9622572    0.23472187088125
            0.44453796    0.81377028525955
 s    1 1.00
            0.12194962                   1
 p    1 1.00
                   0.8                   1

[5d]
[7f]
[9g]

[MO]
 Sym= A
 Ene=               0
 Spin= Alpha
 Occup=    1.00000
   1    0.00072812018675985
   2    -0.0021692086930211
   3    0.0096708527037461
   4    -0.017342538422304
   5      0.01060178270216
   6    -0.00084209870397573
   7    0.0019296849704725
   8     0.001613794412217
   9    0.0026227228900601
  10    -0.0059801653290397
  11    -0.0050422792758216
  12    -0.0040133007445235
  13    0.0074275649275188
  14    0.0075487336152225
  15    -0.0023596823111437
  16      -0.6092793061264
  17      0.31486777987886
  18     -0.53899340306779
  19      0.10534112389582
  20    -0.0011407998671858
  21     -0.16394233342634
  22     0.086424210111643
  23     -0.14549914631173
  24     0.027580013995678
  25    2.366180942107e-05
  26    -0.00029939280904416
  27    -0.00011624842165772
  28    -0.00017002910389792
  29    -0.0002947832918916
  30    -0.00017770989323351
  31    -0.00034782739734216
  32    -0.00036113958238865
  33     -0.00248928208695
  34    0.0051688312937438
  35    0.0053669616990385
  36    -0.017495311341675
  37     0.011641814311564
  38     -0.01144603480508
  39    -0.029622746728757
  40     0.019811498403848
  41    -0.019192241150785
  42    -0.046096142418236
  43     0.034018815833797
  44    -0.037459943340846
  45    0.0023983713557986
  46    0.0005281472470197
  47    -0.00029193737292078
  48    0.00014110124929175
  49    0.0021948397858609
  50    -0.0003002510340887
  51    -0.0021006211929078
  52    0.0048584660988192
  53    0.0049953387922102
  54     0.015775433848063
  55    -7.1827470008123e-06
  56     0.016876154024751
  57     0.026652918409978
  58    0.00013851433279951
  59     0.028561984422709
  60     0.042355076557645
  61    -0.0046037368749749
  62     0.050261887812191
  63    -0.0010399244328015
  64    -0.00092968348221571
  65    -0.0023993868812333
  66    -0.00025318109063966
  67    -0.0014900050435271
  68    0.0014950427882929
  69    -0.0042785526207757
  70     0.020723957257786
  71    -0.037732695023115
  72     0.014726484977817
  73    0.00058932113146265
  74    -0.0024850038856466
  75    -0.0017430439565901
  76    -0.0019290076731311
  77    0.0081184802686224
  78    0.0056949406261733
  79    0.0031063505539239
  80    -0.011780885466049
  81    -0.0086135552233654
  82    0.00072391272443009
  83    0.0031256817833986
  84    -0.0037563410023948
  85    0.0024179052009949
  86    -0.00037379908040045
  87    0.0015330759714269
  88    0.0048762140486259
  89    -0.00052443948414891
  90    -3.6167029333203e-05
  91    -0.0033778967239331
  92    -5.2113646727844e-05
  93    0.00019855864790068
  94    0.00017576121592088
  95    -0.00034824383259069
  96    -2.8824783855673e-05
  97    0.00034057007063076
  98    -9.9015364027307e-05
  99    -0.00070055422477466
 100    -0.0046253923516847
 101    0.0073847179447962
 102    0.0061767882077943
 103    0.0044900692077095
 104    -0.0079493656687567
 105    0.0010404387257055
 106    0.0079360765006419
 107    -0.013900155487201
 108    0.0015096522730739
 109    0.0079261930483637
 110     -0.02145251415385
 111    0.0051640286847824
 112    0.0015554790512615
 113     0.002637494632865
 114    -0.0014100278941305
 115    -0.0022254591816961
 116    0.0014439522752097
 117    -0.0009333644539143
 118    -0.006133215031311
 119    0.0089193072800741
 120    0.0096558964583698
 121    -0.0056128245380326
 122    -0.0021092040580257
 123    -0.0048534963096498
 124    -0.0096688429728723
 125    -0.004035396707251
 126    -0.0085039224746021
 127    -0.014377624381682
 128    -0.0017886234436788
 129    -0.011095855664556
 130    0.0010904576332906
 131    -0.00055536894348942
 132    -0.003646069644937
 133    0.0025771350163494
 134    -0.0026875668112514
 135    -0.00019432455403226
 136    -0.0013080825873563
 137    0.0031628899465999
 138    -0.002441376204379
 139    0.0006026788165931
 140    0.0012016179200046
 141    0.0025402706857642
 142    0.0014166580737396
 143    0.0021505801771412
 144    0.0043650584025227
 145    -0.00025465011190546
 146    0.0035947033772826
 147    0.0079861792200021
 148    -1.2067254876011e-05
 149    -0.00022845167214567
 150    -0.00026525844126849
 151    0.00023502954936917
 152    -0.00020751415526288
 153    -0.00021959645618022
 154    -0.0014777098921656
 155    0.0034407651633872
 156    -0.0020986424906436
 157    -0.0014158173164988
 158    0.0026246693197159
 159    -4.8010255745795e-05
 160    -0.002771481011717
 161    0.0044751603261466
 162    -6.1901708333041e-05
 163    -0.0026956385711758
 164    0.0086466677593853
 165    -2.9092549070433e-05
 166    6.3643469706753e-05
 167    0.00018970488663333
 168    -0.00019312573713769
 169    1.6594755027733e-05
 170    0.00038629739915617
 171    0.0034574123802075
 172    -0.0080993579110503
 173    -0.004544216394133
 174    0.0071865295285541
 175     0.012567429465385
 176      0.01000243998456
 177    0.0067203406954567
 178    0.0055348663775422
 179    0.0086710563564773
 180    -0.00038892468737304
 181    -0.0006263617368746
 182    -0.00071671238373458
 183    8.746261370812e-05
 184    -0.0005149994306273
 185    0.0034967669224452
 186    0.0018216929281676
 187    -8.818361014163e-05
 188    0.00045684883893437
 189    0.00030198484063207
 190    0.0044778331447538
 191    0.0034036889009979
 192    0.0003849860002933
 193    9.408837579738e-05
 194    6.3716079335333e-05
 195    -0.00063563895384786
 196    -0.0025509419472894
 197    8.9286174478113e-05
 198    -0.00014216242617939
 199    6.7850500467203e-05
 200     0.003170373278224
 201    -0.0067243461242964
 202    -0.0075425840187112
 203    -0.013954809736143
 204    0.0032876780811854
 205    0.0033778231813235
 206    -0.010052743045468
 207    0.00057836498531867
 208    0.00055801091434942
 209    0.00082918045030467
 210    -0.00039349356848664
 211    0.00020811904450142
 212    -0.0008305320233788
 213    -8.9316837901019e-05
 214    -0.00034519777844962
 215    -0.0022205681631155
 216    -0.00027582153078742
 217    3.6893467875508e-05
 218    0.00012052879440263
 219     0.005809014946596
 220    0.0044156042608095
 221    -0.00026844512269885
 222    1.7974675775957e-05
 223    -0.00014821851201672
 224    0.00069310011736917
 225    0.0038018853847179
 226    -2.1592747658222e-05
 227    -2.3720912069281e-05
 228    -9.5079150269478e-05
 229    -0.00063255716273584
 230    0.00074393952290886
 231    0.0098723144939269
 232    -0.00039454551361899
 233    0.0014178206049426
 234    0.0011645452532391
 235    -0.0022468577218502
 236    0.00076765122507661
 237    0.0014822645277571
 238    -2.8195017479924e-05
 239    -2.0572731545313e-05
 240    6.6197061595661e-05
 241    -3.2859678229046e-06
 242    0.00013357037856926
 243    -0.00027503816818871
 244    -0.0033160917337869
 245    4.3683767551052e-05
 246    9.2857761839511e-05
 247    -3.2594995364052e-05
 248    -0.00051768327777604
 249    -0.0020238952844612
 250    -3.2480404864012e-05
 251    -5.6324520099382e-05
 252    3.2230267533833e-05
 253    0.00066375514208033
 254    -0.0081750477198583
 255    -0.00011460805149557
 256    -0.00023471845118152
 257    2.2640104654526e-05
 258    -0.00055061858939186
 259    0.00062289407833816
 260    0.0091573538250053
 261    -0.00041314930406316
 262    0.0013697544933067
 263    0.00071655115814164
 264    0.0011205113223479
 265    0.0017366333020608
 266    0.00021519302922335
 267    -5.2189645698961e-05
 268    -0.00013508657135658
 269    2.6431914260672e-05
 270    4.6734693715029e-05
 271    -4.4006956514876e-05
 272    -0.00038534628900533
 273    -0.0019047075146743
 274    4.4028572612815e-05
 275    1.1760909863124e-05
 276    -6.4241526320477e-05
 277    0.00050312099441925
 278    -0.0071690032755451
 279    0.00015245999941878
 280    -2.0471486641582e-06
 281    -0.00014706287188034
 282    -0.00025537227929011
 283    -0.0033419832145976
 284    -5.4569387887868e-05
 285    -1.0083360525095e-05
 286    9.6004403450018e-05
 Sym= A
 Ene=               1
 Spin= Alpha
 Occup=    1.00000
   1    0.00057392803780435
   2    -0.0017210975216338
   3    0.0075770212321982
   4    -0.014244562085023
   5     0.018263620977178
   6    0.00078771217431149
   7    3.9424028552411e-05
   8    0.00018475911468128
   9    -0.0025032913617769
  10    -4.3319751582583e-05
  11    -0.00049541086933626
  12    0.0052826003353595
  13    -0.0046172495557326
  14    -0.0025184862662192
  15     0.012722789455945
  16      0.38403126875394
  17      0.64963681168648
  18     -0.13712082254712
  19     -0.42766171916931
  20    0.0030119551815389
  21      0.10094362954973
  22      0.17356830306293
  23    -0.037860492544718
  24     -0.11341118150556
  25    -0.00022036017869541
  26    0.00023152452547638
  27    0.00011420732317689
  28    -0.00027963400322762
  29    0.00015639040533032
  30    0.0002417896264846
  31    -7.7865980390949e-05
  32    -0.00052639690726232
  33    -0.0035792138245268
  34    0.0069425652488614
  35    0.0054291000946296
  36    -0.011147730606897
  37    -0.0059522728472192
  38     0.021829289130742
  39    -0.018929425269131
  40    -0.009750418783362
  41     0.036848514088267
  42    -0.027069812802632
  43    -0.020423461011842
  44     0.063825884778212
  45    -0.0011992596452552
  46    0.0022828243955541
  47    -0.0019878413685135
  48    -0.0010722440815002
  49    0.00066268393654261
  50    -0.00068864443832104
  51    -0.0046075988347627
  52    0.0079051538895957
  53    0.0064102914640164
  54    0.0058879754282748
  55     0.020405255359722
  56    -0.0079242504086004
  57    0.0099961376529553
  58     0.034617758966324
  59     -0.01314607044165
  60     0.013091058778309
  61     0.056273207032717
  62    -0.027176305131137
  63    0.0021244416184245
  64    -0.00028866148222306
  65    -0.00072508630963709
  66    0.0023939534128302
  67    -0.0011711030659934
  68    0.0016269165728877
  69    -0.0046429315765841
  70     0.022609510652694
  71    -0.038360458079154
  72     0.003694001272348
  73    0.00065203774801219
  74    -0.0028708110499814
  75    -0.0016819255084977
  76    -0.0021329701620291
  77    0.0093939031120623
  78    0.0055183975120198
  79    0.0031105367927867
  80     -0.01578725937814
  81    -0.0089802066522004
  82    0.0023570577544561
  83    1.4139974837215e-06
  84    -0.0047624753916011
  85    0.00063571135287697
  86    0.0014630564275663
  87    0.0037152250447811
  88    -0.0017550443207816
  89    -0.0031064251260379
  90    -0.0038220128593465
  91    1.4814436689663e-05
  92    -1.2226055636989e-07
  93    -0.000203706076966
  94    0.00010929196152247
  95    -0.00026822420689235
  96    -0.00022632819467357
  97    0.00017821505251578
  98    -0.00044423562287393
  99    0.00042016500630877
 100    0.0026879857512077
 101    -0.0022894035993521
 102    -0.0081964339217384
 103    -0.0069111727122864
 104     -0.01984330601968
 105    0.0032117393376711
 106    -0.011735419338573
 107    -0.034222561142042
 108    0.0055163365346977
 109    -0.019628274412818
 110    -0.058652461648088
 111    0.0094362471118995
 112    -0.00060491363690872
 113    -0.0012940322895601
 114    -0.001819166641971
 115      0.00133103741889
 116    -0.00028545437056238
 117    5.5312978223252e-05
 118    0.00029578301825463
 119    0.0011961361959452
 120    -0.0034551841993799
 121     0.012924897734042
 122    0.0033543829006784
 123    -0.014033693000296
 124     0.022214505177984
 125    0.0055496836262372
 126    -0.024294818567659
 127     0.038701218160546
 128     0.011227395390021
 129    -0.040628940145483
 130    0.00043877602545504
 131    0.00049029277791448
 132    -0.0014549026253542
 133    -0.00015530328340347
 134    0.0010757052578981
 135    -0.00047223666758929
 136    -0.0031184815324849
 137    0.0049208817151787
 138    0.0048380540954395
 139    -0.00031848299979278
 140    0.00078772065676047
 141    0.0034894046041683
 142    -0.00098708122543815
 143    0.0014159532813952
 144    0.0062224932183657
 145    0.0023052676489088
 146    0.0024742574520451
 147     0.010078948861765
 148    0.00014560870727581
 149    0.0007544234034569
 150    -0.00035904844915798
 151    -0.00036540673714443
 152    0.00031996765166149
 153    -0.0003988254571205
 154    -0.0026290965807764
 155    0.0041759425385559
 156    0.0037806050345004
 157    -0.00048469132412568
 158    0.0031933887884363
 159    -0.00070614862818319
 160    -0.00052087354008298
 161    0.0057751838982583
 162    -0.0012047376510603
 163    -0.0039989336746046
 164    0.0083293850401643
 165    -0.0021586620962131
 166    0.00036845384861149
 167    -7.9481198884663e-05
 168    -0.00027700909933695
 169    0.00021871896717463
 170    -0.00062960671725983
 171    -0.00014304192707473
 172    -0.00062298569299132
 173     0.010053777717603
 174    -0.00064824974031248
 175    0.00027529962772318
 176    0.0052522638036756
 177    0.0016278571729828
 178    -0.0018442365452483
 179    0.0065883128487244
 180    0.00094943866066354
 181    -8.5319470792992e-05
 182    0.00025139134793928
 183    -0.00051169743558071
 184    -0.00099029944027591
 185    -0.0061001502926277
 186    -0.0069483078032644
 187    4.9533808574762e-05
 188    -7.437652646628e-05
 189    -0.00021533131490917
 190    0.0034457764225698
 191    0.0013838139145222
 192    0.00010861248606948
 193    -2.0055538655321e-05
 194    0.00020579759715051
 195    0.0030964433761588
 196    -0.008732834667187
 197    -8.9496300315003e-05
 198    0.00020402806506058
 199    -0.00028555620747003
 200    -0.0015425954590125
 201    0.0032961492187483
 202    0.0053625381222202
 203    0.0055540302504075
 204    0.0036081849848937
 205    -0.0031267799598564
 206    0.0041005629406444
 207    0.0050424258747629
 208    -0.0020309982739527
 209    -0.00013239305698741
 210    0.00030386000602816
 211    -0.00047745367202898
 212    -0.00030403744329125
 213    -0.0014817308469724
 214    -0.0059596459910559
 215    -0.0025021543439422
 216    0.00030903021485182
 217    -0.00032991875794577
 218    -0.00035921076758143
 219    -0.0015301608826653
 220    -0.0021830845039856
 221    6.6158692584017e-05
 222    0.0001881603012445
 223    1.1768560924126e-06
 224    0.0059093677785854
 225    -0.0034207510483763
 226    2.010665196877e-05
 227    -0.00033063299844939
 228    0.00040933130406898
 229    0.00060863737882192
 230    -0.00058792613463196
 231    -0.0083544095112021
 232    -0.0012434152730248