[Molden Format]
made by pyscf v[2.2.1]
[Atoms] (AU)
Fe   1   26    10.35569916261654     2.17318504324982   -15.17450078025744
S   2   16     7.65339080448850    -1.15273293598469   -16.53510358994429
S   3   16    14.15404867299231     0.79368497231733   -17.08312416606816
Fe   4   26    11.41394579237297    -2.30546587196938   -18.19806257956155
S   5   16    10.33680190137089     2.36215765570633   -10.54467177507304
S   6   16     8.74943195673624     6.19830168857340   -16.57289811243559
S   7   16    10.86592521624911    -2.83458918684759   -22.77119980100900
S   8   16    12.96352121451632    -6.44396608476686   -16.74297346364645
C   9   6    10.41239094635349     8.40928125431453   -14.19184319548361
H   10   1    12.26432254842725     9.12737718164925   -14.96663090655529
H   11   1     9.20296622663185    10.07224024393178   -13.70051440309670
H   12   1    10.80923343251215     7.25654831832984   -12.45329516088376
C   13   6     6.80301404843422     3.21253441176060   -10.46908273009044
H   14   1     5.68807563494084     1.51178089965205   -10.99820604496866
H   15   1     6.19830168857340     3.89283581660403    -8.54156208303408
H   16   1     6.46286334601251     4.68652078892135   -11.92417184600554
C   17   6     9.84547310898397    -7.97464424566456   -17.87680913838549
H   18   1     9.63760323528181    -7.57780175950590   -19.93661061416140
H   19   1     9.84547310898397   -10.05334298268613   -17.49886391347247
H   20   1     8.25810316434932    -7.02978118338203   -16.87525429236600
C   21   6    14.41861033043142    -3.49599333044536   -23.13024776467636
H   22   1    14.92883638406399    -3.89283581660403   -25.15225471796098
H   23   1    15.49575422143351    -1.81413707958246   -22.41215183734163
H   24   1    14.90993912281834    -5.14005505881697   -21.90192578370907
[GTO]
1 0
 s    6 1.00
          60923.640643  0.0017552243692958
          9147.8893982   0.013449023284001
          2081.3505927   0.066678874640978
          587.55977067    0.23176348548844
           191.0904399    0.46945550248188
          65.732730112     0.3596824938678
 s    3 1.00
          127.25891928   -0.10723431835929
           14.83091301    0.62971616328466
          6.0653307408    0.44472317896179
 s    3 1.00
           10.44994371   -0.21694289195548
          1.7245228003    0.69457867408393
         0.71772177325    0.43298308896347
 s    1 1.00
        0.091449828308                   1
 s    1 1.00
        0.033706691021                   1
 p    5 1.00
          773.43750995  0.0091440529992506
          182.15149714   0.067887577136571
          57.547272758    0.26167978878504
          20.614988935    0.51088040113251
           7.634855789    0.33235475570224
 p    3 1.00
           3.871932799    0.33193859098144
          1.4924724132     0.5553666555499
         0.56061284958    0.23106034201617
 p    1 1.00
              0.134915                   1
 d    4 1.00
          38.968133419   0.033335938558743
          10.800067078    0.17766212505983
          3.6136457999      0.441281781625
          1.2129967888    0.57089200490673
 d    1 1.00
          0.3652439317                   1
 f    1 1.00
                 1.598                   1

2 0
 s    5 1.00
           9184.930301  -0.0054729466134731
          1381.5105503  -0.040954402155135
           313.8714758   -0.18475828956188
          88.053870623   -0.47567280643953
          27.039914905   -0.43495153584169
 s    3 1.00
          45.648731303  -0.091904045808942
          4.9664522326    0.55698777214497
          2.0116242047     0.5111546829846
 s    1 1.00
         0.35661077013                   1
 s    1 1.00
         0.13507221477                   1
 p    5 1.00
          261.98233439  -0.009183054659266
          61.306894736   -0.06590222652599
          19.103729887   -0.24587784518735
          6.6567720378    -0.4823147107602
          2.3959635161   -0.38956314351423
 p    1 1.00
         0.61776161679                   1
 p    1 1.00
         0.16993376871                   1
 d    1 1.00
                  0.55                   1

3 0
 s    5 1.00
           9184.930301  -0.0054729466134731
          1381.5105503  -0.040954402155135
           313.8714758   -0.18475828956188
          88.053870623   -0.47567280643953
          27.039914905   -0.43495153584169
 s    3 1.00
          45.648731303  -0.091904045808942
          4.9664522326    0.55698777214497
          2.0116242047     0.5111546829846
 s    1 1.00
         0.35661077013                   1
 s    1 1.00
         0.13507221477                   1
 p    5 1.00
          261.98233439  -0.009183054659266
          61.306894736   -0.06590222652599
          19.103729887   -0.24587784518735
          6.6567720378    -0.4823147107602
          2.3959635161   -0.38956314351423
 p    1 1.00
         0.61776161679                   1
 p    1 1.00
         0.16993376871                   1
 d    1 1.00
                  0.55                   1

4 0
 s    6 1.00
          60923.640643  0.0017552243692958
          9147.8893982   0.013449023284001
          2081.3505927   0.066678874640978
          587.55977067    0.23176348548844
           191.0904399    0.46945550248188
          65.732730112     0.3596824938678
 s    3 1.00
          127.25891928   -0.10723431835929
           14.83091301    0.62971616328466
          6.0653307408    0.44472317896179
 s    3 1.00
           10.44994371   -0.21694289195548
          1.7245228003    0.69457867408393
         0.71772177325    0.43298308896347
 s    1 1.00
        0.091449828308                   1
 s    1 1.00
        0.033706691021                   1
 p    5 1.00
          773.43750995  0.0091440529992506
          182.15149714   0.067887577136571
          57.547272758    0.26167978878504
          20.614988935    0.51088040113251
           7.634855789    0.33235475570224
 p    3 1.00
           3.871932799    0.33193859098144
          1.4924724132     0.5553666555499
         0.56061284958    0.23106034201617
 p    1 1.00
              0.134915                   1
 d    4 1.00
          38.968133419   0.033335938558743
          10.800067078    0.17766212505983
          3.6136457999      0.441281781625
          1.2129967888    0.57089200490673
 d    1 1.00
          0.3652439317                   1
 f    1 1.00
                 1.598                   1

5 0
 s    5 1.00
           9184.930301  -0.0054729466134731
          1381.5105503  -0.040954402155135
           313.8714758   -0.18475828956188
          88.053870623   -0.47567280643953
          27.039914905   -0.43495153584169
 s    3 1.00
          45.648731303  -0.091904045808942
          4.9664522326    0.55698777214497
          2.0116242047     0.5111546829846
 s    1 1.00
         0.35661077013                   1
 s    1 1.00
         0.13507221477                   1
 p    5 1.00
          261.98233439  -0.009183054659266
          61.306894736   -0.06590222652599
          19.103729887   -0.24587784518735
          6.6567720378    -0.4823147107602
          2.3959635161   -0.38956314351423
 p    1 1.00
         0.61776161679                   1
 p    1 1.00
         0.16993376871                   1
 d    1 1.00
                  0.55                   1

6 0
 s    5 1.00
           9184.930301  -0.0054729466134731
          1381.5105503  -0.040954402155135
           313.8714758   -0.18475828956188
          88.053870623   -0.47567280643953
          27.039914905   -0.43495153584169
 s    3 1.00
          45.648731303  -0.091904045808942
          4.9664522326    0.55698777214497
          2.0116242047     0.5111546829846
 s    1 1.00
         0.35661077013                   1
 s    1 1.00
         0.13507221477                   1
 p    5 1.00
          261.98233439  -0.009183054659266
          61.306894736   -0.06590222652599
          19.103729887   -0.24587784518735
          6.6567720378    -0.4823147107602
          2.3959635161   -0.38956314351423
 p    1 1.00
         0.61776161679                   1
 p    1 1.00
         0.16993376871                   1
 d    1 1.00
                  0.55                   1

7 0
 s    5 1.00
           9184.930301  -0.0054729466134731
          1381.5105503  -0.040954402155135
           313.8714758   -0.18475828956188
          88.053870623   -0.47567280643953
          27.039914905   -0.43495153584169
 s    3 1.00
          45.648731303  -0.091904045808942
          4.9664522326    0.55698777214497
          2.0116242047     0.5111546829846
 s    1 1.00
         0.35661077013                   1
 s    1 1.00
         0.13507221477                   1
 p    5 1.00
          261.98233439  -0.009183054659266
          61.306894736   -0.06590222652599
          19.103729887   -0.24587784518735
          6.6567720378    -0.4823147107602
          2.3959635161   -0.38956314351423
 p    1 1.00
         0.61776161679                   1
 p    1 1.00
         0.16993376871                   1
 d    1 1.00
                  0.55                   1

8 0
 s    5 1.00
           9184.930301  -0.0054729466134731
          1381.5105503  -0.040954402155135
           313.8714758   -0.18475828956188
          88.053870623   -0.47567280643953
          27.039914905   -0.43495153584169
 s    3 1.00
          45.648731303  -0.091904045808942
          4.9664522326    0.55698777214497
          2.0116242047     0.5111546829846
 s    1 1.00
         0.35661077013                   1
 s    1 1.00
         0.13507221477                   1
 p    5 1.00
          261.98233439  -0.009183054659266
          61.306894736   -0.06590222652599
          19.103729887   -0.24587784518735
          6.6567720378    -0.4823147107602
          2.3959635161   -0.38956314351423
 p    1 1.00
         0.61776161679                   1
 p    1 1.00
         0.16993376871                   1
 d    1 1.00
                  0.55                   1

9 0
 s    5 1.00
          1238.4016938  0.0055173650481097
          186.29004992   0.041088828555946
          42.251176346     0.1822538212649
          11.676557932    0.46828459437429
          3.5930506482    0.44575817336002
 s    1 1.00
         0.40245147363                   1
 s    1 1.00
         0.13090182668                   1
 p    3 1.00
          9.4680970621   0.056888332011037
          2.0103545142    0.31294059336471
         0.54771004707    0.76065016509135
 p    1 1.00
         0.15268613795                   1
 d    1 1.00
                   0.8                   1

10 0
 s    3 1.00
             13.010701   0.033485484812989
             1.9622572    0.23472187088125
            0.44453796    0.81377028525955
 s    1 1.00
            0.12194962                   1
 p    1 1.00
                   0.8                   1

11 0
 s    3 1.00
             13.010701   0.033485484812989
             1.9622572    0.23472187088125
            0.44453796    0.81377028525955
 s    1 1.00
            0.12194962                   1
 p    1 1.00
                   0.8                   1

12 0
 s    3 1.00
             13.010701   0.033485484812989
             1.9622572    0.23472187088125
            0.44453796    0.81377028525955
 s    1 1.00
            0.12194962                   1
 p    1 1.00
                   0.8                   1

13 0
 s    5 1.00
          1238.4016938  0.0055173650481097
          186.29004992   0.041088828555946
          42.251176346     0.1822538212649
          11.676557932    0.46828459437429
          3.5930506482    0.44575817336002
 s    1 1.00
         0.40245147363                   1
 s    1 1.00
         0.13090182668                   1
 p    3 1.00
          9.4680970621   0.056888332011037
          2.0103545142    0.31294059336471
         0.54771004707    0.76065016509135
 p    1 1.00
         0.15268613795                   1
 d    1 1.00
                   0.8                   1

14 0
 s    3 1.00
             13.010701   0.033485484812989
             1.9622572    0.23472187088125
            0.44453796    0.81377028525955
 s    1 1.00
            0.12194962                   1
 p    1 1.00
                   0.8                   1

15 0
 s    3 1.00
             13.010701   0.033485484812989
             1.9622572    0.23472187088125
            0.44453796    0.81377028525955
 s    1 1.00
            0.12194962                   1
 p    1 1.00
                   0.8                   1

16 0
 s    3 1.00
             13.010701   0.033485484812989
             1.9622572    0.23472187088125
            0.44453796    0.81377028525955
 s    1 1.00
            0.12194962                   1
 p    1 1.00
                   0.8                   1

17 0
 s    5 1.00
          1238.4016938  0.0055173650481097
          186.29004992   0.041088828555946
          42.251176346     0.1822538212649
          11.676557932    0.46828459437429
          3.5930506482    0.44575817336002
 s    1 1.00
         0.40245147363                   1
 s    1 1.00
         0.13090182668                   1
 p    3 1.00
          9.4680970621   0.056888332011037
          2.0103545142    0.31294059336471
         0.54771004707    0.76065016509135
 p    1 1.00
         0.15268613795                   1
 d    1 1.00
                   0.8                   1

18 0
 s    3 1.00
             13.010701   0.033485484812989
             1.9622572    0.23472187088125
            0.44453796    0.81377028525955
 s    1 1.00
            0.12194962                   1
 p    1 1.00
                   0.8                   1

19 0
 s    3 1.00
             13.010701   0.033485484812989
             1.9622572    0.23472187088125
            0.44453796    0.81377028525955
 s    1 1.00
            0.12194962                   1
 p    1 1.00
                   0.8                   1

20 0
 s    3 1.00
             13.010701   0.033485484812989
             1.9622572    0.23472187088125
            0.44453796    0.81377028525955
 s    1 1.00
            0.12194962                   1
 p    1 1.00
                   0.8                   1

21 0
 s    5 1.00
          1238.4016938  0.0055173650481097
          186.29004992   0.041088828555946
          42.251176346     0.1822538212649
          11.676557932    0.46828459437429
          3.5930506482    0.44575817336002
 s    1 1.00
         0.40245147363                   1
 s    1 1.00
         0.13090182668                   1
 p    3 1.00
          9.4680970621   0.056888332011037
          2.0103545142    0.31294059336471
         0.54771004707    0.76065016509135
 p    1 1.00
         0.15268613795                   1
 d    1 1.00
                   0.8                   1

22 0
 s    3 1.00
             13.010701   0.033485484812989
             1.9622572    0.23472187088125
            0.44453796    0.81377028525955
 s    1 1.00
            0.12194962                   1
 p    1 1.00
                   0.8                   1

23 0
 s    3 1.00
             13.010701   0.033485484812989
             1.9622572    0.23472187088125
            0.44453796    0.81377028525955
 s    1 1.00
            0.12194962                   1
 p    1 1.00
                   0.8                   1

24 0
 s    3 1.00
             13.010701   0.033485484812989
             1.9622572    0.23472187088125
            0.44453796    0.81377028525955
 s    1 1.00
            0.12194962                   1
 p    1 1.00
                   0.8                   1

[5d]
[7f]
[9g]

[MO]
 Sym= A
 Ene=               0
 Spin= Alpha
 Occup=    1.00000
   1    0.00073079867675374
   2    -0.002177304658665
   3     0.009706181460066
   4    -0.017363096024369
   5     0.010629344499014
   6    -0.00084342436985962
   7    0.0019330313053595
   8    0.0016163671193352
   9    0.0026270231880012
  10    -0.0059909835344622
  11    -0.0050506140028001
  12    -0.0040114942566815
  13    0.0074221863250513
  14    0.0075467868399931
  15    -0.0023585999016038
  16     -0.60927962354357
  17      0.31486663250298
  18     -0.53899450840734
  19      0.10534029307419
  20    -0.0011515126965168
  21     -0.16393753742287
  22     0.086430100678374
  23     -0.14548523183422
  24     0.027583218335505
  25    2.4490962818392e-05
  26    -0.00029951799291601
  27    -0.00011636265936102
  28    -0.00016971531035176
  29    -0.00029468384961875
  30    -0.00017756521580968
  31    -0.00034813188602756
  32    -0.00036466203500037
  33    -0.0025187399114303
  34    0.0052395120135723
  35    0.0053816239262014
  36    -0.017491653129083
  37     0.011702863478607
  38    -0.011419902631801
  39     -0.02964176581598
  40     0.020043667506584
  41    -0.019105164086319
  42     -0.04598907131418
  43     0.033739103820516
  44    -0.037533682048493
  45    0.0023809612086738
  46    0.00052241143203332
  47    -0.0002942332732728
  48    0.00016513576076216
  49    0.0021692617625936
  50    -0.00030379478293901
  51    -0.0021312572791117
  52    0.0049400856682128
  53    0.0049996014556292
  54     0.015746894807425
  55    3.323557240098e-05
  56     0.016926109066206
  57     0.026570100316679
  58    0.00028932911082807
  59     0.028754774284463
  60     0.042383952454581
  61    -0.0047812448087566
  62     0.050022820683034
  63    -0.0010429224006076
  64    -0.00090517649739407
  65    -0.0023876408710716
  66    -0.00024730845682708
  67    -0.0014645456355956
  68    0.0014924961068062
  69    -0.0042708849431921
  70     0.020690488227986
  71    -0.037718543511318
  72     0.014692986116001
  73    0.00058551159866228
  74    -0.002475229606299
  75    -0.0017362003844495
  76    -0.0019169556015561
  77    0.0080877671834621
  78    0.0056733832243905
  79    0.0030981665669357
  80    -0.011766829295569
  81    -0.0086003241792697
  82    0.00092728845792162
  83    0.0031145019636954
  84    -0.0038013709626152
  85    0.0020946068098214
  86    -0.00048423112420579
  87    0.0016815251574192
  88    0.0052966701509574
  89    -0.00073508454972473
  90    1.4925974446001e-05
  91    -0.0036018588269966
  92    -5.2103766499705e-05
  93    0.00019868338755261
  94    0.00017590674429071
  95    -0.00034839936997105
  96    -2.8870695066323e-05
  97    0.00034073910825228
  98    -9.9142990848291e-05
  99    -0.00070147448064273
 100    -0.004631536554763
 101     0.007395747097276
 102    0.0061791254479284
 103    0.0044909262092908
 104     -0.00795030760542
 105    0.0010343342728665
 106    0.0079386868895102
 107    -0.013902386594005
 108    0.0014991118760553
 109     0.007922824498895
 110    -0.021452559032305
 111    0.0051445152617067
 112    0.0015570003891215
 113    0.0026383750200928
 114    -0.0014115345782443
 115    -0.0022258798908806
 116    0.0014438960706318
 117    -0.00093449348186439
 118    -0.006140738263962
 119    0.0089320293466856
 120    0.0096629706168981
 121    -0.0056106690207289
 122    -0.0021149131889895
 123    -0.0048519378989844
 124    -0.0096653381087616
 125    -0.0040453734803699
 126    -0.0085020754360973
 127    -0.014367369590967
 128    -0.0018051857431163
 129    -0.011084834865137
 130    0.0010912659725457
 131    -0.00055410894898799
 132    -0.0036480960279493
 133    0.0025774228105665
 134    -0.0026889979618444
 135    -0.0001911755132688
 136    -0.001287480203437
 137    0.0031392870377571
 138    -0.002482707333755
 139    0.00060340382064762
 140     0.001188363194781
 141    0.0025197275395997
 142    0.0014104683078038
 143    0.0021323161037351
 144    0.0043347343686507
 145    -0.00023720378489086
 146    0.0035377777533763
 147    0.0078948351267466
 148    -2.7114747578961e-05
 149    -0.00022395197829227
 150    -0.0002723698769359
 151    0.00023812978364479
 152    -0.00020851661900038
 153    -0.00021636197934764
 154    -0.0014565996547979
 155    0.0034182187858107
 156    -0.002143318763244
 157    -0.0014077793122511
 158    0.0026000185702624
 159    -5.1705530404223e-05
 160    -0.0027537603514963
 161    0.0044410900300236
 162    -6.5213555345812e-05
 163    -0.0026721053682037
 164    0.0085338649051677
 165    -4.4833705176491e-05
 166    7.1733725154432e-05
 167    0.00019138519872818
 168    -0.00018827370605955
 169    3.2176414964917e-05
 170    0.00039153329845234
 171    0.0034581718933442
 172    -0.008100373630374
 173    -0.0045464296271276
 174    0.0071889247499299
 175     0.012569968815564
 176     0.010004214669922
 177     0.006721988409393
 178    0.0055404301435735
 179    0.0086770722080891
 180    -0.00038914424184722
 181    -0.00062667653950077
 182    -0.00071661332138926
 183    8.7155584880317e-05
 184    -0.00051526967518851
 185    0.0034992389969338
 186    0.0018192970088817
 187    -8.8046811822366e-05
 188    0.0004570712713113
 189    0.00030190605778562
 190       0.0044787400213
 191    0.0034038588334311
 192    0.0003850173495089
 193    9.4414883137648e-05
 194    6.3776663230244e-05
 195    -0.00063569553275692
 196    -0.0025577689922208
 197    8.9231454659311e-05
 198    -0.00014261812800372
 199    6.7951008896153e-05
 200    0.0031701368515152
 201    -0.0067238823261752
 202    -0.0075471671479858
 203    -0.013958542122006
 204    0.0032867276839307
 205    0.0033775930880934
 206    -0.010055231179867
 207    0.00058037180662155
 208    0.00055396647640636
 209    0.00082898239753256
 210    -0.00039350401142933
 211    0.00020731427249994
 212    -0.00083057790958907
 213    -8.94704479824e-05
 214    -0.0003458157154481
 215    -0.002213912523035
 216    -0.00027540035016149
 217    3.8065136121336e-05
 218    0.00012169696949921
 219    0.0058111250297411
 220    0.0044157135265323
 221    -0.00026876527093993
 222    1.7734785656282e-05
 223    -0.00014843519417213
 224    0.00069209071425858
 225    0.0037962501152476
 226    -2.173397939379e-05
 227    -2.2781023658464e-05
 228    -9.4438324067083e-05
 229    -0.00063309651181291
 230    0.00073607406810409
 231     0.009890743393662
 232    -0.00038904704867002
 233    0.0014191112297915
 234    0.0011649882810492
 235    -0.0022421469666016
 236    0.00080850380791086
 237    0.0014857586034289
 238    -2.7224834448796e-05
 239    -2.1919841690401e-05
 240    6.7003297711183e-05
 241    -2.1237133993036e-06
 242    0.0001305854521756
 243    -0.0002817616971051
 244    -0.0033023433099135
 245    4.3914347507888e-05
 246    8.9627238836915e-05
 247    -3.2902257316405e-05
 248    -0.00051977514752516
 249    -0.0020179736833972
 250    -3.2624668082789e-05
 251    -5.5862839412643e-05
 252    3.1539607186437e-05
 253    0.00066266899545328
 254    -0.0081874549953938
 255    -0.00011788967648922
 256    -0.00023814264769072
 257    2.555815069026e-05
 258    -0.00055187106889169
 259    0.00061573853235637
 260    0.0091749494860047
 261    -0.00041957918333822
 262    0.0013696046218104
 263    0.00071681084990751
 264    0.0011023037919165
 265    0.0017534360382081
 266    0.0002532503385577
 267    -5.3527037264026e-05
 268    -0.00013223930390985
 269    2.6639202897961e-05
 270    4.4703653816756e-05
 271    -4.218090304224e-05
 272    -0.00038746768028425
 273    -0.001898505193759
 274    4.408909580065e-05
 275    1.143623918343e-05
 276    -6.3250496159959e-05
 277    0.00050173933887447
 278    -0.0071791473935174
 279    0.00015613721646913
 280    4.3174852361497e-07
 281    -0.00015068093156309
 282    -0.00026274917523243
 283    -0.0033272330986795
 284    -5.3634843779985e-05
 285    -1.1815424986254e-05
 286    9.2844624968952e-05
 Sym= A
 Ene=               1
 Spin= Alpha
 Occup=    1.00000
   1    0.0005761255635627
   2    -0.0017276158080049
   3    0.0076065873868904
   4    -0.014272639810324
   5     0.018279836306023
   6    0.0007868719356753
   7    4.141585700721e-05
   8    0.00018600224163774
   9    -0.0025006633211413
  10    -4.9954873524475e-05
  11    -0.0004994956211745
  12    0.0052804338712182
  13    -0.0046193018827683
  14    -0.0025223137263375
  15     0.012724076013734
  16      0.38403335142277
  17      0.64963590241889
  18     -0.13712189515441
  19     -0.42766134558724
  20    0.0030047930455209
  21      0.10093630146149
  22      0.17356856338705
  23    -0.037854241477855
  24     -0.11339753168524
  25    -0.00021981798638834
  26    0.00023185280718632
  27    0.00011414463726501
  28    -0.0002793053340361
  29    0.0001566517950711
  30    0.00024198567250442
  31    -7.7671973485245e-05
  32    -0.0005296545785185
  33    -0.0036129840903881
  34    0.0070251824240145
  35    0.0054927135480774
  36    -0.011146340943609
  37    -0.0059127016310915
  38     0.021863487190216
  39    -0.018944592919286
  40    -0.0096060370374308
  41     0.037001896332971
  42    -0.026975503385746
  43    -0.020588045655918
  44     0.063571878216133
  45    -0.0011988533975717
  46    0.0022449181995432
  47    -0.0019857833092269
  48    -0.0010452610501826
  49    0.00065198783674141
  50    -0.00069203603898159
  51    -0.0046372038847567
  52    0.0079656260786673
  53    0.0064667260069402
  54    0.0058710155426201
  55     0.020452491055279
  56    -0.0079059297387691
  57    0.0099540324320527
  58     0.034818721104993
  59    -0.013082778639303
  60     0.013099414987973
  61     0.055972332006777
  62    -0.027243496986662
  63    0.0021049778258873
  64    -0.00028343503501063
  65    -0.00072461176139242
  66    0.0023823507280901
  67    -0.0011350562194779
  68    0.0016238183071014
  69    -0.0046334591497282
  70      0.02256950367087
  71    -0.038361712171088
  72    0.0036616900221435
  73    0.0006490750488749
  74    -0.0028594324262952
  75    -0.0016738619105154
  76    -0.0021239197864397
  77    0.0093583711395909
  78     0.005493431650966
  79    0.0031109311897248
  80    -0.015788025292217
  81    -0.0089893122641148
  82    0.0025614484528352
  83    0.00014386419976489
  84    -0.0048278814479553
  85    0.00043313594883575
  86    0.0012389001310732
  87    0.0040961035823142
  88    -0.0018467367014514
  89    -0.0035230813786022
  90    -0.0040508656774859
  91    5.3680786180097e-05
  92    2.0497107308855e-07
  93    -0.0002038227284401
  94    0.00010938093270886
  95    -0.00026844986567259
  96    -0.00022647729050471
  97    0.00017878045444293
  98    -0.00044491955349222
  99    0.00041934915280245
 100    0.0026825605867236
 101    -0.0022805939754549
 102    -0.0081912554932201
 103    -0.0069105779405333
 104    -0.019844317421023
 105    0.0032062859614418
 106    -0.011733572836809
 107    -0.034224548921952
 108    0.0055074020596102
 109    -0.019629269836231
 110    -0.058654537192965
 111    0.0094153880883526
 112    -0.00060348556431118
 113    -0.0012946081994651
 114    -0.0018207485426749
 115     0.001330990794909
 116    -0.00028578919894401
 117    5.4379137809629e-05
 118    0.00028951888417384
 119    0.0012070149924261
 120    -0.0034493619314019
 121     0.012927528189607
 122    0.0033494263913345
 123    -0.014032683155821
 124     0.022218864391036
 125    0.0055408562324355
 126      -0.0242936887332
 127     0.038711812369658
 128     0.011212034735242
 129    -0.040621436170783
 130    0.00043948019806765
 131    0.00049144084155379
 132    -0.0014565802832322
 133    -0.00015595477749098
 134    0.0010752995894421
 135    -0.00046853913571184
 136    -0.0030946527449878
 137    0.0049044388831542
 138    0.0047695811892608
 139    -0.0003207666632742
 140    0.00076693330223367
 141    0.0034628193485632
 142    -0.00098446379160157
 143    0.0013869466688249
 144    0.0061813861775943
 145    0.0022604313363768
 146    0.0023860213702665
 147     0.009966254275851
 148    0.00012834110415033
 149    0.00074192916972839
 150    -0.0003719402178622
 151    -0.00036614015532603
 152    0.00031596689384234
 153    -0.00039596459442961
 154    -0.0026105953951975
 155    0.0041582579510627
 156    0.0037403021326212
 157    -0.00047290205147757
 158    0.0031678627997707
 159    -0.00071576545483157
 160    -0.00050827906304986
 161    0.0057335377136142
 162    -0.0012167470736113
 163    -0.0039240136026135
 164    0.0082421713333574
 165    -0.0021995551308759
 166    0.00037733724715493
 167    -8.1057492263387e-05
 168    -0.00027792118482041
 169    0.00022085327944627
 170    -0.00061524170665242
 171    -0.00014279090193613
 172    -0.00062349814587152
 173     0.010056319864788
 174    -0.00064657843160528
 175    0.00027655384106754
 176    0.0052530978975584
 177    0.0016288727808122
 178    -0.0018407262352014
 179    0.0065921059140121
 180    0.00094929200625337
 181    -8.5591724538593e-05
 182    0.00025151104879292
 183    -0.00051201453013313
 184    -0.00099053225583691
 185    -0.0060984385268391
 186    -0.0069519331684909
 187    4.9626747759412e-05
 188    -7.4156433800682e-05
 189    -0.00021542807439311
 190    0.0034463105665545
 191    0.0013831950073395
 192    0.00010862705135699
 193    -1.9734563747458e-05
 194    0.00020582752502201
 195    0.0030964008883218
 196    -0.0087384373492732
 197    -8.9524862175461e-05
 198    0.00020360826904697
 199    -0.00028550286152823
 200    -0.0015435418830927
 201    0.0032978105984337
 202    0.0053610114023464
 203    0.0055511645015625
 204    0.0036061472682926
 205    -0.0031275632443459
 206    0.0041006503558617
 207    0.0050440364349132
 208    -0.0020342630131397
 209    -0.00013269810150513
 210    0.00030393612505592
 211    -0.00047851183643264
 212    -0.00030385747458381
 213    -0.001482007009315
 214    -0.0059607149817969
 215    -0.0024917678357344
 216    0.00031002246498338
 217    -0.00032796177763828
 218    -0.00035801371068872
 219    -0.0015289181359845
 220    -0.0021857410400554
 221    6.574922763987e-05
 222    0.00018791652571657
 223    1.0171748610134e-06
 224    0.0059083969667497
 225    -0.0034258184140206
 226    1.9752880148994e-05
 227    -0.00032964335361444
 228    0.00040992000918511
 229    0.00060748643045148
 230    -0.00058580444823648
 231    -0.0083383273255402
 232    -0.0012379214961333
 233    -0.0015364458274409