[Molden Format]
made by pyscf v[2.0.1]
[Atoms] (AU)
Cr   1   24    -2.49591247080304     0.00009448630623    -0.00013228082872
Cr   2   24     2.49589357354180     0.00009448630623    -0.00013228082872
O   3   8     0.00000000000000    -0.31337328323662     2.74894679888230
O   4   8     0.00000000000000     2.53746754828223    -1.10307093343112
O   5   8     0.00000000000000    -2.22388639517190    -1.64597035175741
H   6   1     0.00003779452249     0.94728191172197     4.08167614823181
H   7   1     0.00105824662976     3.05888078057222    -2.86195242113129
H   8   1    -0.00083147949481    -4.00771226771634    -1.21722928861609
N   9   7    -5.00739628487250    -2.73195816102246     1.34438895953808
H   10   1    -4.13275544537881    -4.12334460927847     2.35157518940876
H   11   1    -5.77114799537672    -3.48503291892289    -0.25713503376957
H   12   1    -6.36321808746420    -1.89940152232283     2.43247436480139
N   13   7    -5.00739628487250     2.53038107531511     1.69376152544767
N   14   7    -5.00739628487250     0.20176605831981    -3.03824497129197
H   15   1    -6.36321808746420    -1.15681474441375    -2.86125322246521
H   16   1    -5.77114799537672     1.51994451651017     3.14669635358076
N   17   7     5.00739628487250    -2.73193926376122     1.34438895953808
N   18   7     5.00737738761126     2.53039997257635     1.69376152544767
N   19   7     5.00739628487250     0.20178495558106    -3.03824497129197
H   20   1    -4.13277434264005     4.09830573812799     2.39513337657999
H   21   1    -6.36321808746420     3.05638634208779     0.42870326861883
H   22   1    -4.13275544537881     0.02520894650170    -4.74680305229498
H   23   1    -5.77116689263796     1.96527737502517    -2.88965580611742
H   24   1     4.13275544537881    -4.12332571201723     2.35157518940876
H   25   1     5.77114799537672    -3.48501402166164    -0.25715393103081
H   26   1     6.36321808746420    -1.89936372780034     2.43245546754015
H   27   1     4.13273654811756     4.09832463538923     2.39513337657999
H   28   1     5.77114799537672     1.51996341377142     3.14669635358076
H   29   1     6.36319919020295     3.05640523934904     0.42868437135758
H   30   1     4.13275544537881     0.02522784376294    -4.74680305229498
H   31   1     5.77114799537672     1.96529627228642    -2.88965580611742
H   32   1     6.36321808746420    -1.15679584715250    -2.86125322246521
[GTO]
1 0
 s    6 1.00
          51528.086349  0.0017695545768669
          7737.2103487   0.013556436258096
           1760.374847   0.067162645785071
          496.87706544    0.23295905918518
          161.46520598    0.47040576982722
          55.466352268    0.35733072606876
 s    3 1.00
          107.54732999   -0.10605255446629
          12.408671897    0.62543981484169
          5.0423628826    0.44878820793655
 s    3 1.00
          8.5461640165   -0.21819012081133
          1.3900441221    0.70422525667731
         0.56066602876    0.42488555412558
 s    1 1.00
        0.071483705972                   1
 s    1 1.00
        0.028250687604                   1
 p    5 1.00
          640.48536096  0.0093555063746755
          150.69711194   0.068993338492216
          47.503755296     0.2634118959318
          16.934120165    0.51034501651775
           6.240968059    0.33195512953954
 p    3 1.00
          3.0885463206    0.32917682676976
          1.1791047769    0.55491385190365
         0.43369774432    0.23818412855984
 p    1 1.00
              0.120675                   1
 d    4 1.00
          27.559479426   0.036950140313562
          7.4687020327    0.18821519783039
          2.4345903574    0.44641244239929
         0.78244754808     0.5681617303244
 d    1 1.00
         0.21995774311                   1
 f    1 1.00
                 1.147                   1

2 0
 s    6 1.00
          51528.086349  0.0017695545768669
          7737.2103487   0.013556436258096
           1760.374847   0.067162645785071
          496.87706544    0.23295905918518
          161.46520598    0.47040576982722
          55.466352268    0.35733072606876
 s    3 1.00
          107.54732999   -0.10605255446629
          12.408671897    0.62543981484169
          5.0423628826    0.44878820793655
 s    3 1.00
          8.5461640165   -0.21819012081133
          1.3900441221    0.70422525667731
         0.56066602876    0.42488555412558
 s    1 1.00
        0.071483705972                   1
 s    1 1.00
        0.028250687604                   1
 p    5 1.00
          640.48536096  0.0093555063746755
          150.69711194   0.068993338492216
          47.503755296     0.2634118959318
          16.934120165    0.51034501651775
           6.240968059    0.33195512953954
 p    3 1.00
          3.0885463206    0.32917682676976
          1.1791047769    0.55491385190365
         0.43369774432    0.23818412855984
 p    1 1.00
              0.120675                   1
 d    4 1.00
          27.559479426   0.036950140313562
          7.4687020327    0.18821519783039
          2.4345903574    0.44641244239929
         0.78244754808     0.5681617303244
 d    1 1.00
         0.21995774311                   1
 f    1 1.00
                 1.147                   1

3 0
 s    5 1.00
          2266.1767785  -0.0053893503921743
          340.87010191   -0.04023472138896
          77.363135167   -0.18008184205526
           21.47964494   -0.46828857657651
          6.6589433124   -0.44692617160187
 s    1 1.00
         0.80975975668                   1
 s    1 1.00
         0.25530772234                   1
 p    3 1.00
          17.721504317   0.062630248763161
           3.863550544    0.33331138482352
          1.0480920883    0.74148638308122
 p    1 1.00
         0.27641544411                   1
 d    1 1.00
                   1.2                   1

4 0
 s    5 1.00
          2266.1767785  -0.0053893503921743
          340.87010191   -0.04023472138896
          77.363135167   -0.18008184205526
           21.47964494   -0.46828857657651
          6.6589433124   -0.44692617160187
 s    1 1.00
         0.80975975668                   1
 s    1 1.00
         0.25530772234                   1
 p    3 1.00
          17.721504317   0.062630248763161
           3.863550544    0.33331138482352
          1.0480920883    0.74148638308122
 p    1 1.00
         0.27641544411                   1
 d    1 1.00
                   1.2                   1

5 0
 s    5 1.00
          2266.1767785  -0.0053893503921743
          340.87010191   -0.04023472138896
          77.363135167   -0.18008184205526
           21.47964494   -0.46828857657651
          6.6589433124   -0.44692617160187
 s    1 1.00
         0.80975975668                   1
 s    1 1.00
         0.25530772234                   1
 p    3 1.00
          17.721504317   0.062630248763161
           3.863550544    0.33331138482352
          1.0480920883    0.74148638308122
 p    1 1.00
         0.27641544411                   1
 d    1 1.00
                   1.2                   1

6 0
 s    3 1.00
             13.010701   0.033485484812989
             1.9622572    0.23472187088125
            0.44453796    0.81377028525955
 s    1 1.00
            0.12194962                   1
 p    1 1.00
                   0.8                   1

7 0
 s    3 1.00
             13.010701   0.033485484812989
             1.9622572    0.23472187088125
            0.44453796    0.81377028525955
 s    1 1.00
            0.12194962                   1
 p    1 1.00
                   0.8                   1

8 0
 s    3 1.00
             13.010701   0.033485484812989
             1.9622572    0.23472187088125
            0.44453796    0.81377028525955
 s    1 1.00
            0.12194962                   1
 p    1 1.00
                   0.8                   1

9 0
 s    5 1.00
          1712.8415853  -0.0054477995804909
          257.64812677  -0.040627174632423
          58.458245853   -0.18111962250584
          16.198367905   -0.46843975563173
          5.0052600809   -0.44616846289231
 s    1 1.00
         0.58731856571                   1
 s    1 1.00
         0.18764592253                   1
 p    3 1.00
          13.571470233  -0.058848116969522
          2.9257372874   -0.32024624762471
         0.79927750754   -0.75328226520436
 p    1 1.00
         0.21954348034                   1
 d    1 1.00
                     1                   1

10 0
 s    3 1.00
             13.010701   0.033485484812989
             1.9622572    0.23472187088125
            0.44453796    0.81377028525955
 s    1 1.00
            0.12194962                   1
 p    1 1.00
                   0.8                   1

11 0
 s    3 1.00
             13.010701   0.033485484812989
             1.9622572    0.23472187088125
            0.44453796    0.81377028525955
 s    1 1.00
            0.12194962                   1
 p    1 1.00
                   0.8                   1

12 0
 s    3 1.00
             13.010701   0.033485484812989
             1.9622572    0.23472187088125
            0.44453796    0.81377028525955
 s    1 1.00
            0.12194962                   1
 p    1 1.00
                   0.8                   1

13 0
 s    5 1.00
          1712.8415853  -0.0054477995804909
          257.64812677  -0.040627174632423
          58.458245853   -0.18111962250584
          16.198367905   -0.46843975563173
          5.0052600809   -0.44616846289231
 s    1 1.00
         0.58731856571                   1
 s    1 1.00
         0.18764592253                   1
 p    3 1.00
          13.571470233  -0.058848116969522
          2.9257372874   -0.32024624762471
         0.79927750754   -0.75328226520436
 p    1 1.00
         0.21954348034                   1
 d    1 1.00
                     1                   1

14 0
 s    5 1.00
          1712.8415853  -0.0054477995804909
          257.64812677  -0.040627174632423
          58.458245853   -0.18111962250584
          16.198367905   -0.46843975563173
          5.0052600809   -0.44616846289231
 s    1 1.00
         0.58731856571                   1
 s    1 1.00
         0.18764592253                   1
 p    3 1.00
          13.571470233  -0.058848116969522
          2.9257372874   -0.32024624762471
         0.79927750754   -0.75328226520436
 p    1 1.00
         0.21954348034                   1
 d    1 1.00
                     1                   1

15 0
 s    3 1.00
             13.010701   0.033485484812989
             1.9622572    0.23472187088125
            0.44453796    0.81377028525955
 s    1 1.00
            0.12194962                   1
 p    1 1.00
                   0.8                   1

16 0
 s    3 1.00
             13.010701   0.033485484812989
             1.9622572    0.23472187088125
            0.44453796    0.81377028525955
 s    1 1.00
            0.12194962                   1
 p    1 1.00
                   0.8                   1

17 0
 s    5 1.00
          1712.8415853  -0.0054477995804909
          257.64812677  -0.040627174632423
          58.458245853   -0.18111962250584
          16.198367905   -0.46843975563173
          5.0052600809   -0.44616846289231
 s    1 1.00
         0.58731856571                   1
 s    1 1.00
         0.18764592253                   1
 p    3 1.00
          13.571470233  -0.058848116969522
          2.9257372874   -0.32024624762471
         0.79927750754   -0.75328226520436
 p    1 1.00
         0.21954348034                   1
 d    1 1.00
                     1                   1

18 0
 s    5 1.00
          1712.8415853  -0.0054477995804909
          257.64812677  -0.040627174632423
          58.458245853   -0.18111962250584
          16.198367905   -0.46843975563173
          5.0052600809   -0.44616846289231
 s    1 1.00
         0.58731856571                   1
 s    1 1.00
         0.18764592253                   1
 p    3 1.00
          13.571470233  -0.058848116969522
          2.9257372874   -0.32024624762471
         0.79927750754   -0.75328226520436
 p    1 1.00
         0.21954348034                   1
 d    1 1.00
                     1                   1

19 0
 s    5 1.00
          1712.8415853  -0.0054477995804909
          257.64812677  -0.040627174632423
          58.458245853   -0.18111962250584
          16.198367905   -0.46843975563173
          5.0052600809   -0.44616846289231
 s    1 1.00
         0.58731856571                   1
 s    1 1.00
         0.18764592253                   1
 p    3 1.00
          13.571470233  -0.058848116969522
          2.9257372874   -0.32024624762471
         0.79927750754   -0.75328226520436
 p    1 1.00
         0.21954348034                   1
 d    1 1.00
                     1                   1

20 0
 s    3 1.00
             13.010701   0.033485484812989
             1.9622572    0.23472187088125
            0.44453796    0.81377028525955
 s    1 1.00
            0.12194962                   1
 p    1 1.00
                   0.8                   1

21 0
 s    3 1.00
             13.010701   0.033485484812989
             1.9622572    0.23472187088125
            0.44453796    0.81377028525955
 s    1 1.00
            0.12194962                   1
 p    1 1.00
                   0.8                   1

22 0
 s    3 1.00
             13.010701   0.033485484812989
             1.9622572    0.23472187088125
            0.44453796    0.81377028525955
 s    1 1.00
            0.12194962                   1
 p    1 1.00
                   0.8                   1

23 0
 s    3 1.00
             13.010701   0.033485484812989
             1.9622572    0.23472187088125
            0.44453796    0.81377028525955
 s    1 1.00
            0.12194962                   1
 p    1 1.00
                   0.8                   1

24 0
 s    3 1.00
             13.010701   0.033485484812989
             1.9622572    0.23472187088125
            0.44453796    0.81377028525955
 s    1 1.00
            0.12194962                   1
 p    1 1.00
                   0.8                   1

25 0
 s    3 1.00
             13.010701   0.033485484812989
             1.9622572    0.23472187088125
            0.44453796    0.81377028525955
 s    1 1.00
            0.12194962                   1
 p    1 1.00
                   0.8                   1

26 0
 s    3 1.00
             13.010701   0.033485484812989
             1.9622572    0.23472187088125
            0.44453796    0.81377028525955
 s    1 1.00
            0.12194962                   1
 p    1 1.00
                   0.8                   1

27 0
 s    3 1.00
             13.010701   0.033485484812989
             1.9622572    0.23472187088125
            0.44453796    0.81377028525955
 s    1 1.00
            0.12194962                   1
 p    1 1.00
                   0.8                   1

28 0
 s    3 1.00
             13.010701   0.033485484812989
             1.9622572    0.23472187088125
            0.44453796    0.81377028525955
 s    1 1.00
            0.12194962                   1
 p    1 1.00
                   0.8                   1

29 0
 s    3 1.00
             13.010701   0.033485484812989
             1.9622572    0.23472187088125
            0.44453796    0.81377028525955
 s    1 1.00
            0.12194962                   1
 p    1 1.00
                   0.8                   1

30 0
 s    3 1.00
             13.010701   0.033485484812989
             1.9622572    0.23472187088125
            0.44453796    0.81377028525955
 s    1 1.00
            0.12194962                   1
 p    1 1.00
                   0.8                   1

31 0
 s    3 1.00
             13.010701   0.033485484812989
             1.9622572    0.23472187088125
            0.44453796    0.81377028525955
 s    1 1.00
            0.12194962                   1
 p    1 1.00
                   0.8                   1

32 0
 s    3 1.00
             13.010701   0.033485484812989
             1.9622572    0.23472187088125
            0.44453796    0.81377028525955
 s    1 1.00
            0.12194962                   1
 p    1 1.00
                   0.8                   1

[5d]
[7f]
[9g]

[MO]
 Sym= A
 Ene=               0
 Spin= Alpha
 Occup=    1.00000
   1    -0.041430996432982
   2     0.061817986763225
   3      -0.8949341007472
   4       6.9698704031235
   5      -1.4102760330835
   6    -0.00061831613919544
   7    -5.9091737507021e-06
   8    5.4784432702129e-06
   9    0.0012061981685115
  10    2.3121704084771e-05
  11    -2.0863221571901e-05
  12     -0.10399647952191
  13    -0.00011008283070844
  14    -6.7024694661459e-05
  15     0.033597091377867
  16    -4.3689150787552e-06
  17    4.7094269463761e-07
  18    -0.058191768225314
  19    3.4047953825297e-06
  20     -0.28995080515204
  21    4.6510992085248e-05
  22    5.8417872287765e-06
  23       0.5022241650492
  24    -2.6827372013532e-05
  25    -0.0019807857072189
  26    -0.0083376362033095
  27    -0.0078131042432926
  28    -0.0015424096125127
  29    1.8104024127034e-06
  30     0.010737846698904
  31    -0.0020157288950659
  32    0.0049044503309525
  33    -0.010029449716747
  34     0.089443401071333
  35      -1.0857857093761
  36       0.1125953456945
  37     0.017773018748197
  38    -2.173121184355e-06
  39    -1.7183789649893e-06
  40    -0.067111714594269
  41    9.0421774690713e-06
  42    6.6058368814529e-06
  43      0.83652391321901
  44    -9.5558529457957e-05
  45    -4.7026693230153e-05
  46    -0.012027099685069
  47    -1.5086760636705e-06
  48    4.6201531669909e-06
  49     0.020835579220003
  50    -5.0102652385906e-06
  51     0.082747405351033
  52    1.0789673739958e-05
  53    -2.7468293087047e-06
  54     -0.14333549798256
  55    4.8412481385506e-05
  56    -0.0095853711218673
  57    -0.0059863724334622
  58    0.0036951465089434
  59    -0.0074248094008926
  60    -3.4695875181196e-06
  61    0.0077284473016125
  62    0.00095304696302115
  63     0.020951460155169
  64      0.25952460126947
  65     -0.82974450974723
  66     -0.11134783311962
  67    -0.00085777995022845
  68    -0.050926480603365
  69      0.64422709704904
  70    -0.0037362693742256
  71      0.37061221353852
  72    -0.013983173982138
  73    -0.060147568737184
  74    0.0068252846818464
  75    -0.015544031279974
  76     0.017779933134391
  77     0.020952519498816
  78      0.25952074414392
  79     -0.82966006743219
  80       -0.111356535472
  81     -0.04366381377249
  82     0.026210456215459
  83      0.64426510891167
  84      0.32277312878018
  85     -0.18212701258175
  86     0.016971564776036
  87     0.014686147458558
  88     0.013791873880577
  89    0.0023368934678682
  90    -0.060997507478059
  91     0.020946392989124
  92      0.25952209444666
  93     -0.82988985710352
  94     -0.11134467594776
  95     0.044591750176675
  96     0.024695346530345
  97      0.64417111148261
  98     -0.31906271126779
  99     -0.18847951901663
 100    0.0067530299351881
 101     0.045481750680412
 102    -0.020624987273785
 103    -0.0035456795313746
 104     0.043238265568696
 105     0.015232063715358
 106     -0.22575902078568
 107    -0.038852394129186
 108    0.0098668158248294
 109    0.0030492245939429
 110     0.015192753943477
 111     -0.22590821445765
 112     -0.03879413382631
 113    -0.0022951226217159
 114    -0.010109449314179
 115     0.015492732398258
 116     -0.22610571916591
 117    -0.038743038640627
 118    -0.007442942293217
 119    0.0069576564255017
 120     0.023899167123197
 121      0.38262989825742
 122      -1.4356754251785
 123     -0.11145611219929
 124    -0.094955991161266
 125     0.039249111363876
 126      -0.6610376593839
 127     -0.73728194119852
 128      0.35531368018419
 129    0.0098686603905849
 130     0.010290967171994
 131     0.027928477762481
 132     0.025409278884585
 133    -0.028245275523061
 134     0.040454020745928
 135     -0.18253766626124
 136     0.060460755616844
 137     0.028880722263382
 138     -0.01665260053029
 139     0.061044933710386
 140     -0.14580941617359
 141     0.038548814889963
 142     0.050591814160543
 143    -0.035296174510786
 144     0.016715683029726
 145    -0.017560149641281
 146     0.040323909610594
 147     0.084927430859737
 148    -0.013432025424432
 149     0.023899634553926
 150      0.38263120576932
 151      -1.4356122296234
 152     -0.11146223840361
 153     0.081466323858137
 154     0.062611207998387
 155      -0.6610376326961
 156      0.67634639777379
 157      0.46091106035305
 158    0.0032028969118582
 159     0.019315698625118
 160    -0.032370070033748
 161     0.021562519375054
 162     0.023035627487918
 163     0.023901754228605
 164      0.38266975761831
 165      -1.4357776131633
 166     -0.11147109465591
 167     0.013487413941377
 168     -0.10186597282199
 169     -0.66113576593381
 170     0.060973328343392
 171     -0.81626140636355
 172    -0.038691221258549
 173    -0.029614286989651
 174    0.0044449516882122
 175    -0.0026246564435607
 176    0.0052116648201252
 177     0.016714430555213
 178    -0.017554013192433
 179     0.040330009554408
 180    -0.030836143866447
 181     0.080270208350934
 182     0.061035036106815
 183     -0.14579999670448
 184     0.038553712179375
 185    -0.055872781195034
 186    -0.026165631134011
 187    -0.0013881710876615
 188    -0.0085248462654986
 189    -0.041563811942837
 190    -0.0084808183957531
 191    0.00049421167846357
 192    -0.0020662712782265
 193     -0.03912593985183
 194    -0.028619333836414
 195    -0.00061420877318264
 196    0.00060706376887445
 197    -0.0034747428887471
 198    7.9040312619143e-05
 199    -0.00068062280794309
 200    0.00065889503585134
 201    -0.0013880699060577
 202    -0.008527284722995
 203    -0.041508654500215
 204    -0.0084782116764333
 205    -0.0020350827154428
 206    0.00060328256789407
 207    -0.039142823215854
 208     0.013826350615125
 209     0.025091249666819
 210    0.00042183941705904
 211     0.001161276724444
 212    -0.00019798031154436
 213    -0.00078344391802673
 214    -0.0033406213714803
 215    -0.0013883609182363
 216    -0.0085265358132487
 217    -0.041562789111465
 218    -0.0084832258747368
 219    0.0015455053435519
 220    0.0014600966185802
 221    -0.039155830200123
 222     0.014866483343104
 223    -0.024510377208342
 224    0.00031036692793129
 225    0.0023115073775324
 226    0.0001213609485384
 227    -0.0008528535998763
 228    0.0026812161755957
 229     0.040477555367473
 230     -0.18269553685024
 231     0.060459894053998
 232    -0.028838664204406
 233    -0.016689316488001
 234     0.016720791963528
 235    -0.017528231327782
 236     0.040329497185723
 237    -0.054092527261953
 238    -0.066834107530195
 239     0.040482906739355
 240     -0.18267878876875
 241     0.060464738308686
 242    -2.8488901438049e-05
 243     0.033329960591364
 244      0.06104547549371
 245     -0.14586939773143
 246      0.03855110192544
 247    0.0052803575038468
 248     0.061468847045091
 249     -0.01781557406894
 250      0.10292684737025
 251    -0.0084897454176998
 252    0.0074708196838245
 253    -0.00015016792888656
 254    -0.0031199633393292
 255     0.055917762427679
 256    0.0010513212088507
 257    0.0038608904537851
 258    -0.0020650503718488
 259     0.024154390669534
 260    -0.0032562643960297
 261    -9.5483304417986e-05
 262    -0.0022011105481509
 263    -0.0018041676744194
 264    -0.017811953691427
 265      0.10281838273669
 266    -0.0084917686222656
 267    -0.0038499876918059
 268    -0.0063912796140993
 269    -0.0031061375589589
 270     0.055941196345607
 271    0.0010453966672696
 272    -0.0037207967729962
 273    -0.0023157010188689
 274     0.024141244767747
 275    -0.0032411271226231
 276    -9.3011311391821e-05
 277    -0.00046362445781292
 278    0.0028091326304877
 279    -0.017823711277912
 280      0.10288846313423
 281    -0.0084912945788369
 282    -0.003609721834532
 283    0.0065358153858632
 284    -0.0031295109219293
 285     0.055948899207874
 286    0.0010503729816725
 287    -0.00014484468928911
 288    0.0043792228395884
 289     0.024170637591221
 290    -0.0032470895021646
 291    -9.6781407354796e-05
 292    0.0026659813469635
 293    -0.0010036602762102
 Sym= A
 Ene=               1
 Spin= Alpha
 Occup=    1.00000
   1    -3.4763540070315e-08
   2    4.6590455762798e-08
   3    -9.4327189647789e-07
   4    3.404795411637e-06
   5    6.5980167597511e-06
   6    5.016571650497e-08
   7    0.00030864361933764
   8    -6.585835426368e-05
   9    -2.5574773989667e-07
  10    -0.00094895507505469
  11    0.00029278474131757
  12    1.2873584245807e-06
  13     0.013458916806635
  14    -0.0030970824353843
  15    -0.0015722976948468
  16    1.1074112016453e-07
  17    -0.0077387041414296
  18    -0.00090795321307248
  19       1.0809507678385
  20     0.011111101067196
  21    -7.6284642722647e-05
  22     0.054192809592074
  23    0.0064167145599025
  24     -0.36505430430835
  25    -6.0618801983319e-06
  26    0.00030424787723389
  27    0.00026278032973833
  28    7.8673818072101e-06
  29    0.00014410890737814
  30    0.00023571122007342
  31    -0.0010159088962251
  32    8.2516027206032e-09
  33    -8.3091547841035e-08
  34    -1.4815317395957e-07
  35    2.0585639237627e-06
  36    2.6925119657755e-06
  37    4.4575892352634e-08
  38    0.00026118077303497
  39    4.1914526819891e-05
  40    -9.6347199102328e-08
  41    -0.00078735483559395
  42    -0.00014492664830516
  43    -3.9164334323448e-06
  44    0.0032278837327125
  45    0.0014577200059406
  46    0.00058941023568171
  47    -8.6126119825114e-08
  48    0.00081472511031721
  49    0.00034026708739036
  50    0.0019863843718092
  51    -0.0023683719327738
  52    -4.715600489011e-05
  53    -0.002532114148011
  54    -0.0013669646475759
  55    -0.016567405058325
  56    -7.2121359362467e-05
  57    -4.6181182069797e-05
  58    -0.00082710642496419
  59    9.3246377314484e-05
  60    -0.00035552602707105
  61    -3.5543104934371e-05
  62    0.0032029701342826
  63    -0.00021356810931029
  64    -0.0033445749722815
  65    0.0011445351766618
  66    0.0015913232293035
  67    -0.00073843323299358
  68    0.0012165718085745
  69    0.0019283950564243
  70     0.031760741785947
  71     0.011392096813642
  72    -0.0017615156316853
  73    -0.001115923616826
  74    -0.0078237372070541
  75    -0.0022828152327427
  76    -0.0048216271254436
  77    0.0013767858496483
  78    0.0079957893769057
  79      0.07076106626916
  80    -0.011167600717019
  81    -0.011118829104619
  82    0.0050236226609334
  83    -0.026320981292838
  84    -0.018826988691838
  85     0.022038460142949
  86    0.0010739176160066
  87    -0.0048119677036769
  88    -0.0037367502932335
  89    0.00051795570084622
  90       0.0059126536798
  91    -0.0011621369474909
  92    -0.0046433694804946
  93    -0.071897726432123
  94    0.0095755668081089
  95    -0.0092304356943221
  96    -0.0058677637975318
  97     0.024386949344566
  98    -0.0027752390366972
  99    -0.027094861212404
 100    -0.0042998647301537
 101    0.0063303227418542
 102    -0.0024463418829768
 103    -0.0011180037078025
 104    0.0037517630379265
 105    -0.012846098682371
 106    -9.5683203521219e-05
 107    -0.0010461186571157
 108    5.1173173182109e-05
 109    0.00087394633053551
 110    0.0019888730543176
 111    0.0066688505496415
 112    -0.0012329424645859
 113    -0.003221188082203
 114    0.0016041428799112
 115     0.010839924197861
 116    -0.0065952647491709
 117    0.0022968257247392
 118    -0.0022462454717032
 119    -0.0016265990655372
 120     0.001946953444166
 121    0.0062493781252227
 122     0.080476741457148
 123    -0.013006123978528
 124    -0.012695156358619
 125    0.0046842611971657
 126     0.026044835907519
 127     0.035615378297119
 128    -0.031718518813879
 129    -0.0023600170089592
 130    -0.0071691099932542
 131    -0.0083302914415977
 132    -0.00085546784647048
 133      0.01052692368444
 134    0.00086561592059767
 135    0.0001802520952918
 136    -0.0022380039078986
 137    0.0016495940337831
 138     0.001115104559452
 139    -0.0036617241145038
 140    0.0066135649637666
 141    0.0083768890927965
 142    0.0069650577019604
 143    0.00066646855962953
 144    -0.0035962059896337
 145    0.0092836613230829
 146    0.0036524833340469
 147    -0.00066997236416212
 148    0.00099044520817296
 149    -0.0018820491569213
 150    -0.0059797591623993
 151    -0.076820415460664
 152     0.012433995973941
 153    -0.010280657405853
 154    -0.0072080570623756
 155    -0.022472890184684
 156     0.022239095451596
 157     0.041792583785056
 158    -0.0021364171977794
 159    0.0075708340296809
 160    -0.0084686056496801
 161    -0.0011383941382755
 162      0.00834323558085
 163    -6.4881798530357e-05
 164    -0.00027082868930939
 165    -0.0036554537790139
 166    0.00057255174898675
 167    -0.0011882781740392
 168    0.00082914828297797
 169    -0.0035715446403623
 170    -0.034727958397681
 171    -0.0065458942022298
 172    -0.0017523392822875
 173    -0.0016896620420471
 174    -0.0083540733012407
 175    -0.0016145232481246
 176    -0.0033299849277946
 177    -0.0056582188992558
 178    -0.0066899263016455
 179    0.00080584436446058
 180    0.0022212972006151
 181      0.00357003855351
 182    -0.0011454092724728
 183    -0.010761870349597
 184    -0.0037704674926233
 185    -0.0015010180032502
 186    0.0014495719363163
 187    -0.00025823321883179
 188    -0.0011565470647454
 189    -0.0041167438431152
 190    -0.0013208881309455
 191    0.0006539961956711
 192    -0.00026827322810156
 193    -0.0010479362380261
 194    -0.0026469147395858
 195    0.0016338784628654
 196    0.00021625997571967
 197    -0.00065330579867809
 198    0.00048564958914736
 199    -5.847999295927e-05
 200    0.00084169819591503
 201    0.00021748088972925
 202     0.001121495210728
 203    0.0024396854925914
 204     0.001148620310387
 205    0.00051651970892608
 206    0.00033362928037137
 207    0.0019955703329198