[Molden Format]
made by pyscf v[2.0.1]
[Atoms] (AU)
Cr   1   24    -2.49591247080304     0.00009448630623    -0.00013228082872
Cr   2   24     2.49589357354180     0.00009448630623    -0.00013228082872
O   3   8     0.00000000000000    -0.31337328323662     2.74894679888230
O   4   8     0.00000000000000     2.53746754828223    -1.10307093343112
O   5   8     0.00000000000000    -2.22388639517190    -1.64597035175741
H   6   1     0.00003779452249     0.94728191172197     4.08167614823181
H   7   1     0.00105824662976     3.05888078057222    -2.86195242113129
H   8   1    -0.00083147949481    -4.00771226771634    -1.21722928861609
N   9   7    -5.00739628487250    -2.73195816102246     1.34438895953808
H   10   1    -4.13275544537881    -4.12334460927847     2.35157518940876
H   11   1    -5.77114799537672    -3.48503291892289    -0.25713503376957
H   12   1    -6.36321808746420    -1.89940152232283     2.43247436480139
N   13   7    -5.00739628487250     2.53038107531511     1.69376152544767
N   14   7    -5.00739628487250     0.20176605831981    -3.03824497129197
H   15   1    -6.36321808746420    -1.15681474441375    -2.86125322246521
H   16   1    -5.77114799537672     1.51994451651017     3.14669635358076
N   17   7     5.00739628487250    -2.73193926376122     1.34438895953808
N   18   7     5.00737738761126     2.53039997257635     1.69376152544767
N   19   7     5.00739628487250     0.20178495558106    -3.03824497129197
H   20   1    -4.13277434264005     4.09830573812799     2.39513337657999
H   21   1    -6.36321808746420     3.05638634208779     0.42870326861883
H   22   1    -4.13275544537881     0.02520894650170    -4.74680305229498
H   23   1    -5.77116689263796     1.96527737502517    -2.88965580611742
H   24   1     4.13275544537881    -4.12332571201723     2.35157518940876
H   25   1     5.77114799537672    -3.48501402166164    -0.25715393103081
H   26   1     6.36321808746420    -1.89936372780034     2.43245546754015
H   27   1     4.13273654811756     4.09832463538923     2.39513337657999
H   28   1     5.77114799537672     1.51996341377142     3.14669635358076
H   29   1     6.36319919020295     3.05640523934904     0.42868437135758
H   30   1     4.13275544537881     0.02522784376294    -4.74680305229498
H   31   1     5.77114799537672     1.96529627228642    -2.88965580611742
H   32   1     6.36321808746420    -1.15679584715250    -2.86125322246521
[GTO]
1 0
 s    6 1.00
          51528.086349  0.0017695545768669
          7737.2103487   0.013556436258096
           1760.374847   0.067162645785071
          496.87706544    0.23295905918518
          161.46520598    0.47040576982722
          55.466352268    0.35733072606876
 s    3 1.00
          107.54732999   -0.10605255446629
          12.408671897    0.62543981484169
          5.0423628826    0.44878820793655
 s    3 1.00
          8.5461640165   -0.21819012081133
          1.3900441221    0.70422525667731
         0.56066602876    0.42488555412558
 s    1 1.00
        0.071483705972                   1
 s    1 1.00
        0.028250687604                   1
 p    5 1.00
          640.48536096  0.0093555063746755
          150.69711194   0.068993338492216
          47.503755296     0.2634118959318
          16.934120165    0.51034501651775
           6.240968059    0.33195512953954
 p    3 1.00
          3.0885463206    0.32917682676976
          1.1791047769    0.55491385190365
         0.43369774432    0.23818412855984
 p    1 1.00
              0.120675                   1
 d    4 1.00
          27.559479426   0.036950140313562
          7.4687020327    0.18821519783039
          2.4345903574    0.44641244239929
         0.78244754808     0.5681617303244
 d    1 1.00
         0.21995774311                   1
 f    1 1.00
                 1.147                   1

2 0
 s    6 1.00
          51528.086349  0.0017695545768669
          7737.2103487   0.013556436258096
           1760.374847   0.067162645785071
          496.87706544    0.23295905918518
          161.46520598    0.47040576982722
          55.466352268    0.35733072606876
 s    3 1.00
          107.54732999   -0.10605255446629
          12.408671897    0.62543981484169
          5.0423628826    0.44878820793655
 s    3 1.00
          8.5461640165   -0.21819012081133
          1.3900441221    0.70422525667731
         0.56066602876    0.42488555412558
 s    1 1.00
        0.071483705972                   1
 s    1 1.00
        0.028250687604                   1
 p    5 1.00
          640.48536096  0.0093555063746755
          150.69711194   0.068993338492216
          47.503755296     0.2634118959318
          16.934120165    0.51034501651775
           6.240968059    0.33195512953954
 p    3 1.00
          3.0885463206    0.32917682676976
          1.1791047769    0.55491385190365
         0.43369774432    0.23818412855984
 p    1 1.00
              0.120675                   1
 d    4 1.00
          27.559479426   0.036950140313562
          7.4687020327    0.18821519783039
          2.4345903574    0.44641244239929
         0.78244754808     0.5681617303244
 d    1 1.00
         0.21995774311                   1
 f    1 1.00
                 1.147                   1

3 0
 s    5 1.00
          2266.1767785  -0.0053893503921743
          340.87010191   -0.04023472138896
          77.363135167   -0.18008184205526
           21.47964494   -0.46828857657651
          6.6589433124   -0.44692617160187
 s    1 1.00
         0.80975975668                   1
 s    1 1.00
         0.25530772234                   1
 p    3 1.00
          17.721504317   0.062630248763161
           3.863550544    0.33331138482352
          1.0480920883    0.74148638308122
 p    1 1.00
         0.27641544411                   1
 d    1 1.00
                   1.2                   1

4 0
 s    5 1.00
          2266.1767785  -0.0053893503921743
          340.87010191   -0.04023472138896
          77.363135167   -0.18008184205526
           21.47964494   -0.46828857657651
          6.6589433124   -0.44692617160187
 s    1 1.00
         0.80975975668                   1
 s    1 1.00
         0.25530772234                   1
 p    3 1.00
          17.721504317   0.062630248763161
           3.863550544    0.33331138482352
          1.0480920883    0.74148638308122
 p    1 1.00
         0.27641544411                   1
 d    1 1.00
                   1.2                   1

5 0
 s    5 1.00
          2266.1767785  -0.0053893503921743
          340.87010191   -0.04023472138896
          77.363135167   -0.18008184205526
           21.47964494   -0.46828857657651
          6.6589433124   -0.44692617160187
 s    1 1.00
         0.80975975668                   1
 s    1 1.00
         0.25530772234                   1
 p    3 1.00
          17.721504317   0.062630248763161
           3.863550544    0.33331138482352
          1.0480920883    0.74148638308122
 p    1 1.00
         0.27641544411                   1
 d    1 1.00
                   1.2                   1

6 0
 s    3 1.00
             13.010701   0.033485484812989
             1.9622572    0.23472187088125
            0.44453796    0.81377028525955
 s    1 1.00
            0.12194962                   1
 p    1 1.00
                   0.8                   1

7 0
 s    3 1.00
             13.010701   0.033485484812989
             1.9622572    0.23472187088125
            0.44453796    0.81377028525955
 s    1 1.00
            0.12194962                   1
 p    1 1.00
                   0.8                   1

8 0
 s    3 1.00
             13.010701   0.033485484812989
             1.9622572    0.23472187088125
            0.44453796    0.81377028525955
 s    1 1.00
            0.12194962                   1
 p    1 1.00
                   0.8                   1

9 0
 s    5 1.00
          1712.8415853  -0.0054477995804909
          257.64812677  -0.040627174632423
          58.458245853   -0.18111962250584
          16.198367905   -0.46843975563173
          5.0052600809   -0.44616846289231
 s    1 1.00
         0.58731856571                   1
 s    1 1.00
         0.18764592253                   1
 p    3 1.00
          13.571470233  -0.058848116969522
          2.9257372874   -0.32024624762471
         0.79927750754   -0.75328226520436
 p    1 1.00
         0.21954348034                   1
 d    1 1.00
                     1                   1

10 0
 s    3 1.00
             13.010701   0.033485484812989
             1.9622572    0.23472187088125
            0.44453796    0.81377028525955
 s    1 1.00
            0.12194962                   1
 p    1 1.00
                   0.8                   1

11 0
 s    3 1.00
             13.010701   0.033485484812989
             1.9622572    0.23472187088125
            0.44453796    0.81377028525955
 s    1 1.00
            0.12194962                   1
 p    1 1.00
                   0.8                   1

12 0
 s    3 1.00
             13.010701   0.033485484812989
             1.9622572    0.23472187088125
            0.44453796    0.81377028525955
 s    1 1.00
            0.12194962                   1
 p    1 1.00
                   0.8                   1

13 0
 s    5 1.00
          1712.8415853  -0.0054477995804909
          257.64812677  -0.040627174632423
          58.458245853   -0.18111962250584
          16.198367905   -0.46843975563173
          5.0052600809   -0.44616846289231
 s    1 1.00
         0.58731856571                   1
 s    1 1.00
         0.18764592253                   1
 p    3 1.00
          13.571470233  -0.058848116969522
          2.9257372874   -0.32024624762471
         0.79927750754   -0.75328226520436
 p    1 1.00
         0.21954348034                   1
 d    1 1.00
                     1                   1

14 0
 s    5 1.00
          1712.8415853  -0.0054477995804909
          257.64812677  -0.040627174632423
          58.458245853   -0.18111962250584
          16.198367905   -0.46843975563173
          5.0052600809   -0.44616846289231
 s    1 1.00
         0.58731856571                   1
 s    1 1.00
         0.18764592253                   1
 p    3 1.00
          13.571470233  -0.058848116969522
          2.9257372874   -0.32024624762471
         0.79927750754   -0.75328226520436
 p    1 1.00
         0.21954348034                   1
 d    1 1.00
                     1                   1

15 0
 s    3 1.00
             13.010701   0.033485484812989
             1.9622572    0.23472187088125
            0.44453796    0.81377028525955
 s    1 1.00
            0.12194962                   1
 p    1 1.00
                   0.8                   1

16 0
 s    3 1.00
             13.010701   0.033485484812989
             1.9622572    0.23472187088125
            0.44453796    0.81377028525955
 s    1 1.00
            0.12194962                   1
 p    1 1.00
                   0.8                   1

17 0
 s    5 1.00
          1712.8415853  -0.0054477995804909
          257.64812677  -0.040627174632423
          58.458245853   -0.18111962250584
          16.198367905   -0.46843975563173
          5.0052600809   -0.44616846289231
 s    1 1.00
         0.58731856571                   1
 s    1 1.00
         0.18764592253                   1
 p    3 1.00
          13.571470233  -0.058848116969522
          2.9257372874   -0.32024624762471
         0.79927750754   -0.75328226520436
 p    1 1.00
         0.21954348034                   1
 d    1 1.00
                     1                   1

18 0
 s    5 1.00
          1712.8415853  -0.0054477995804909
          257.64812677  -0.040627174632423
          58.458245853   -0.18111962250584
          16.198367905   -0.46843975563173
          5.0052600809   -0.44616846289231
 s    1 1.00
         0.58731856571                   1
 s    1 1.00
         0.18764592253                   1
 p    3 1.00
          13.571470233  -0.058848116969522
          2.9257372874   -0.32024624762471
         0.79927750754   -0.75328226520436
 p    1 1.00
         0.21954348034                   1
 d    1 1.00
                     1                   1

19 0
 s    5 1.00
          1712.8415853  -0.0054477995804909
          257.64812677  -0.040627174632423
          58.458245853   -0.18111962250584
          16.198367905   -0.46843975563173
          5.0052600809   -0.44616846289231
 s    1 1.00
         0.58731856571                   1
 s    1 1.00
         0.18764592253                   1
 p    3 1.00
          13.571470233  -0.058848116969522
          2.9257372874   -0.32024624762471
         0.79927750754   -0.75328226520436
 p    1 1.00
         0.21954348034                   1
 d    1 1.00
                     1                   1

20 0
 s    3 1.00
             13.010701   0.033485484812989
             1.9622572    0.23472187088125
            0.44453796    0.81377028525955
 s    1 1.00
            0.12194962                   1
 p    1 1.00
                   0.8                   1

21 0
 s    3 1.00
             13.010701   0.033485484812989
             1.9622572    0.23472187088125
            0.44453796    0.81377028525955
 s    1 1.00
            0.12194962                   1
 p    1 1.00
                   0.8                   1

22 0
 s    3 1.00
             13.010701   0.033485484812989
             1.9622572    0.23472187088125
            0.44453796    0.81377028525955
 s    1 1.00
            0.12194962                   1
 p    1 1.00
                   0.8                   1

23 0
 s    3 1.00
             13.010701   0.033485484812989
             1.9622572    0.23472187088125
            0.44453796    0.81377028525955
 s    1 1.00
            0.12194962                   1
 p    1 1.00
                   0.8                   1

24 0
 s    3 1.00
             13.010701   0.033485484812989
             1.9622572    0.23472187088125
            0.44453796    0.81377028525955
 s    1 1.00
            0.12194962                   1
 p    1 1.00
                   0.8                   1

25 0
 s    3 1.00
             13.010701   0.033485484812989
             1.9622572    0.23472187088125
            0.44453796    0.81377028525955
 s    1 1.00
            0.12194962                   1
 p    1 1.00
                   0.8                   1

26 0
 s    3 1.00
             13.010701   0.033485484812989
             1.9622572    0.23472187088125
            0.44453796    0.81377028525955
 s    1 1.00
            0.12194962                   1
 p    1 1.00
                   0.8                   1

27 0
 s    3 1.00
             13.010701   0.033485484812989
             1.9622572    0.23472187088125
            0.44453796    0.81377028525955
 s    1 1.00
            0.12194962                   1
 p    1 1.00
                   0.8                   1

28 0
 s    3 1.00
             13.010701   0.033485484812989
             1.9622572    0.23472187088125
            0.44453796    0.81377028525955
 s    1 1.00
            0.12194962                   1
 p    1 1.00
                   0.8                   1

29 0
 s    3 1.00
             13.010701   0.033485484812989
             1.9622572    0.23472187088125
            0.44453796    0.81377028525955
 s    1 1.00
            0.12194962                   1
 p    1 1.00
                   0.8                   1

30 0
 s    3 1.00
             13.010701   0.033485484812989
             1.9622572    0.23472187088125
            0.44453796    0.81377028525955
 s    1 1.00
            0.12194962                   1
 p    1 1.00
                   0.8                   1

31 0
 s    3 1.00
             13.010701   0.033485484812989
             1.9622572    0.23472187088125
            0.44453796    0.81377028525955
 s    1 1.00
            0.12194962                   1
 p    1 1.00
                   0.8                   1

32 0
 s    3 1.00
             13.010701   0.033485484812989
             1.9622572    0.23472187088125
            0.44453796    0.81377028525955
 s    1 1.00
            0.12194962                   1
 p    1 1.00
                   0.8                   1

[5d]
[7f]
[9g]

[MO]
 Sym= A
 Ene=               0
 Spin= Alpha
 Occup=    1.00000
   1    -0.00037716536857084
   2    0.0027414671867485
   3     0.021559919203672
   4     -0.82655350634581
   5      0.05900985557322
   6    -0.017932379301305
   7    -2.9338864005011e-06
   8    -2.2920367895026e-06
   9     0.067219804054123
  10    1.0792794285184e-05
  11    9.650688564091e-06
  12     -0.83822290938126
  13    -6.6946673971239e-05
  14    -0.00010249798025941
  15    -0.0055139144153583
  16    4.0225632928374e-06
  17    3.3506635265514e-06
  18    0.0095496231184021
  19    1.4195081391282e-06
  20     0.042443469144768
  21    -2.226590932964e-05
  22    -2.0523748820573e-05
  23    -0.073491669386879
  24    -1.4972231473047e-06
  25    -0.0096077118772886
  26    0.0056090534724484
  27    0.0033374026422463
  28    -0.0074452123115704
  29    -7.3537110959678e-07
  30    -0.0072417608642944
  31    0.00086175837546999
  32    -0.041625735525243
  33     0.062447430304684
  34     -0.89847537616151
  35       6.9572655423377
  36       -1.412620090966
  37    0.00049201840100902
  38    -8.6903168874658e-07
  39    3.2059950663162e-06
  40    -0.0010302506013828
  41    2.9587571945516e-06
  42    -1.1702934195519e-05
  43      0.14334498798607
  44    3.7234247653269e-05
  45    -0.00014279666271089
  46     0.033671276759241
  47    -1.8773108963441e-06
  48    6.8087122768404e-06
  49    -0.058325516731107
  50    -7.6078360106583e-07
  51     -0.28612876015396
  52    6.8113441153024e-06
  53    -3.0184251536725e-05
  54       0.4956447854888
  55    5.4416852780315e-06
  56    -0.0022644678151675
  57    0.0075098550568365
  58    -0.0077741433510356
  59    -0.0017653877615998
  60    1.2037074385019e-06
  61    -0.0096732682050247
  62    -0.0020058837390212
  63     0.016494532579569
  64      0.25829578544257
  65     -0.87986090584002
  66      0.11573931192635
  67    -0.0019596354079616
  68    -0.043779302770632
  69     -0.61909396349344
  70    -0.0057590156497943
  71      0.39844113979302
  72     -0.01556719274477
  73      0.05794038368343
  74    0.0075499477133556
  75    -0.015923137366028
  76    -0.017072303356327
  77     0.016489762941821
  78      0.25829909645785
  79     -0.88003590592321
  80      0.11574301858111
  81    -0.036941972180318
  82     0.023640291419983
  83     -0.61908905611894
  84      0.34789948333128
  85     -0.19421559565585
  86     0.017914632831231
  87    -0.014206264121266
  88     0.014829604801475
  89    0.0034343346317606
  90     0.058740974556249
  91     0.016498183421888
  92      0.25832704710863
  93     -0.87995311418757
  94      0.11574467296942
  95     0.038905559966142
  96     0.020167140736242
  97     -0.61911235476465
  98     -0.34227707237657
  99     -0.20407255889401
 100    0.0066252984672028
 101    -0.043764585879321
 102    -0.022353429035601
 103    -0.0031031815560837
 104    -0.041670850236003
 105      0.01696501336625
 106     -0.23338765905479
 107     0.038089201547842
 108     0.010400784394462
 109    0.0029186665984596
 110     0.017220324450081
 111     -0.23371534390889
 112     0.038008269631358
 113    -0.0026790638663987
 114    -0.010322401278192
 115     0.016976199738459
 116     -0.23361259846563
 117     0.038010202039297
 118    -0.0077294885275528
 119     0.007556717773614
 120    -0.0055287232628159
 121    -0.0056718953755732
 122     -0.10940353159859
 123     0.013321179571161
 124    0.0074284775067466
 125    -0.0050358722900491
 126     0.010482775925352
 127    -0.070274896497731
 128      0.01925453972657
 129     0.000978226472261
 130    0.0039870273596168
 131    0.0017172552891932
 132    0.0012071412654928
 133    -0.0018264722467799
 134    -0.016794674107611
 135     0.097186304135296
 136     0.010669732169763
 137    0.0085898091048058
 138    -0.0006975001654894
 139    -0.0013574448071523
 140     0.052197923559925
 141    -0.00041777670191832
 142    0.0058871698416005
 143    -0.0034116898032628
 144     0.024497922222095
 145    -0.0027432024543152
 146    0.00073504601764321
 147    0.0008776710026082
 148    -0.0025244454338801
 149    -0.0055274803307076
 150    -0.0056731179184206
 151     -0.10932350253835
 152     0.013313450534424
 153    -0.008071676571011
 154    -0.0039166088970906
 155     0.010491410481084
 156      0.05183637792767
 157     0.051212860284202
 158    0.00037823802170663
 159    -0.00040850042566982
 160    -0.0021113333943947
 161    0.00086538229203524
 162    0.0043641644461539
 163    -0.0055274362512703
 164    -0.0056575356869969
 165     -0.10942856904113
 166     0.013313930162625
 167    0.00064666328694132
 168    0.0089467988086426
 169     0.010442175685857
 170      0.01846339306554
 171    -0.070504440473964
 172    -0.0021929702154959
 173    -0.003575169504812
 174    0.00039747173829356
 175    -0.0006248796598867
 176    -0.0025391663326912
 177      0.02448836501245
 178    -0.0027445410297505
 179    0.00073513630820019
 180    0.0017446983783028
 181    0.0020211683330593
 182    -0.0013440053647643
 183     0.052206390166983
 184    -0.00041198874636025
 185    -0.005899056616137
 186    -0.0033937746608869
 187      0.02375842665313
 188      0.38390470080247
 189      -1.4456913928154
 190      0.11081489356828
 191    -0.094733076154976
 192     0.039130754359732
 193      0.66401843001575
 194     -0.74248937871496
 195      0.35730648175242
 196    0.0099866116935895
 197    -0.010497445821298
 198     0.028072862421568
 199     0.025414859703836
 200     0.028486948705899
 201     0.023760226985945
 202      0.38392218113676
 203      -1.4457061909206
 204       0.1108222988574
 205     0.081257182470661
 206     0.062484047389248
 207       0.6640209998036
 208      0.68069095513674
 209      0.46444627983302
 210    0.0032953887380482
 211    -0.019419655471494
 212     -0.03253071033647
 213     0.021551955777369
 214    -0.023336861536376
 215     0.023761075085215
 216      0.38394866440318
 217      -1.4458792295278
 218      0.11082485660943
 219     0.013487004388857
 220     -0.10161483598939
 221      0.66410667290697
 222      0.06186606060949
 223     -0.82175158967276
 224    -0.038814450322598
 225     0.029925331269902
 226    0.0044589669995185
 227    -0.002762424563305
 228    -0.0051481622184207
 229     -0.01678361817251
 230     0.097067340220619
 231     0.010666869472743
 232    -0.0048824043515555
 233    -0.0070849496493071
 234     0.024474913111714
 235    -0.0027238951092262
 236    0.00073139666087256
 237    -0.0026232133353704
 238    0.00050201658188655
 239    -0.016782638021985
 240      0.09714877056924
 241     0.010668688622503
 242    -0.0036925199709778
 243    0.0077829386862857
 244    -0.0013543553915487
 245     0.052179801558193
 246    -0.00041449694767825
 247    1.3998968269665e-05
 248    0.0068037264110881
 249     0.040176200318404
 250     -0.17897698465753
 251    -0.061139421222919
 252     0.029371178272012
 253    -0.016778948098758
 254     0.061414565899802
 255     -0.14422524910158
 256    -0.038716072352738
 257     0.050900560245355
 258    -0.035527900202263
 259     0.017868607570762
 260    -0.017865582064755
 261    -0.040527880704054
 262     0.085204935367548
 263    -0.013503543486856
 264     0.040187915398129
 265     -0.17909028324747
 266    -0.061137612024211
 267    -0.029198334794133
 268    -0.017052239842929
 269     0.061394199270341
 270     -0.14418394162071
 271    -0.038724360431453
 272    -0.056228602611517
 273    -0.026319264185869
 274     0.017887783138424
 275    -0.017861664416372
 276     -0.04053362875979
 277    -0.054294427235717
 278    -0.067035253837293
 279     0.040194991353772
 280     -0.17903929764485
 281    -0.061141899957758
 282    -0.00015815746433246
 283     0.033825927405606
 284     0.061388191154142
 285     -0.14420442578732
 286    -0.038724602668371
 287    0.0053209421501261
 288     0.061849544863503
 289     0.017891463699811
 290    -0.017886490303522
 291    -0.040536201135436
 292    -0.030915744903048
 293     0.080546679790611
 Sym= A
 Ene=               1
 Spin= Alpha
 Occup=    1.00000
   1    -3.8125681068504e-07
   2    1.121978769913e-06
   3    -4.1378686197925e-06
   4    3.3672163757782e-06
   5    -4.4404667156673e-06
   6    3.3001599753577e-07
   7    -0.0001775488562656
   8    -0.00012844215484071
   9    -1.0649888380718e-06
  10    0.00047981148382888
  11    0.00042947614009361
  12    -2.7441167823277e-06
  13    -0.0018039100011087
  14    -0.0021151165273653
  15    0.0016798702500372
  16    -0.00066989565603578
  17    0.0041310641397892
  18    0.0009715535755705
  19    0.0090645860683364
  20    -0.0099811668877184
  21    0.0043485948768849
  22    -0.026497452945029
  23    -0.0057715604874806
  24    -0.051480133474171
  25    5.3206470930529e-05
  26    1.5578170044653e-07
  27    0.00084298418518477
  28    -6.9139469153581e-05
  29    -0.00030655093182238
  30    3.2254483119529e-07
  31    -0.0032646486223639
  32    -6.8161910479101e-08
  33    2.2175492389979e-07
  34    -9.4020069820211e-07
  35    1.3608625070251e-06
  36    -9.0409563640772e-07
  37    -6.5736572257762e-08
  38    -6.8446984473607e-05
  39    6.1557237442131e-05
  40    1.868120281733e-07
  41    6.9631634107395e-05
  42    -0.00027233554760865
  43    2.9144385087278e-06
  44    -0.012116382939844
  45    0.0025007121480588
  46     0.001912542058082
  47    -2.2145953040248e-05
  48    0.0084314368763072
  49    0.0011047215216368
  50       1.0800359052908
  51    -0.011309300967479
  52    0.00017147086936616
  53    -0.054716105093224
  54    -0.0065315803271981
  55     -0.36658169074128
  56    2.8398003924772e-05
  57    0.0003218799999439
  58    -0.00026939840606789
  59    -3.6967671410903e-05
  60    0.0001277480630958
  61    0.00024913548191549
  62    0.0010410164981458
  63    -0.00027299027884261
  64    0.0019877346005163
  65    -0.0025443537890235
  66    0.0021664432040389
  67    0.0027787060005755
  68    -0.00067614465876797
  69    0.0024569413910746
  70    -0.024316096579374
  71    -0.0097471003444141
  72    0.0016784801000319
  73    -0.001130058350315
  74    0.0074360441769908
  75    0.0020811668096738
  76    -0.0054327481423819
  77    -0.0024946628434845
  78    -0.009690199352845
  79    -0.070803198361476
  80    -0.0027955752289017
  81     0.016903555560889
  82    -0.0059699144932236
  83    -0.018828855942762
  84     0.021824593657651
  85    -0.019328200086318
  86    -0.00079561581917827
  87    -0.0051621181074036
  88    0.0036554051416685
  89    -0.00071505750812227
  90    0.0057425884555797
  91    0.0027660928640727
  92    0.0076984153766931
  93     0.073348086357311
  94    0.00063135572251201
  95      0.01442854004699
  96    0.0089088472424763
  97     0.016373101627181
  98    0.0070669672090896
  99     0.025433290865186
 100     0.003834882564832
 101    0.0065313631214972
 102    0.0024771112181705
 103     0.001356957784895
 104    0.0036494722336638
 105     0.013207194367686
 106    0.0016558880786046
 107    -0.0014719662309468
 108    -1.9619385577872e-05
 109    -0.0011238835888828
 110    -1.3884276707432e-05
 111    -0.006650231267801
 112    -0.00093158574273696
 113    0.0033561522841178
 114    -0.0012912820412358
 115    -0.013196347919648
 116    0.0050010465513034
 117    0.0024076712227579
 118    0.0018110963770613
 119    0.0017283787687822
 120    -0.0013994528243434
 121    -0.0019910360264024
 122    0.0024210051179571
 123    0.0052445181590506
 124    0.0055590054240332
 125    -0.0017695353606076
 126    -0.0066619477099833
 127    -0.00022392418765652
 128    -0.0023275638323282
 129    -9.2368212138581e-05
 130    -0.00083578712733258
 131    -0.00068300885370304
 132    -0.00022966712631324
 133    0.0009381716037847
 134    0.0028464933415929
 135    -0.003957263713934
 136    -0.00052530688398871
 137    -0.00065457219048375
 138    0.00050550475750782
 139    0.0014523461197216
 140    0.0023631781893664
 141    0.0013376513573075
 142    0.00017045782411676
 143    0.00018870063466464
 144    0.00024788403710163
 145     0.001829087840578
 146    0.00058062422454826
 147    -0.00027582256466189
 148    0.00066045160094887
 149    0.0016846245337792
 150    0.0025902285142003
 151    -0.0005849202127707
 152    -0.0059856828673769
 153    0.0059243674111628
 154    0.0033985576936573
 155    0.0078917665106146
 156    -0.0037103955544522
 157    0.0052956636858196
 158    -0.00045532490404614
 159    0.00053206935175082
 160    -0.00069555321736009
 161    -0.00012199014810196
 162    0.00081036388438076
 163    -0.00028586418982738
 164    -0.0005993545940253
 165    -0.0018436337551249
 166    0.00074237802137194
 167    0.0012662195297293
 168    0.0011317006755509
 169    -0.0012364775424158
 170    -0.0085688245209023
 171    -0.001535419788693
 172    -0.00028727364170865
 173    -0.00026252288313446
 174    -0.00091490877242538
 175    -0.00013079456909933
 176    -0.00031035750078904
 177    1.9530854559382e-05
 178    -0.0010582121945484
 179    -0.00025381764586214
 180    0.00049842099870359
 181    0.00044773263835501
 182    -0.0013085887332748
 183    -0.00090230242506833
 184    -0.00060321819079275
 185    -0.0006422282174498
 186    -0.00061463149350101
 187    -0.0018878623841562
 188    -0.0062166182913405
 189    -0.080194577451155
 190    -0.012849952607217
 191     0.012809115399303
 192    -0.0046045420847818
 193     0.025766948245469
 194    -0.035566285090865
 195     0.031722605940688
 196    0.0023834717317607
 197    -0.0072209178057428
 198     0.008326615456422
 199    0.00080161482396973
 200     0.010559573037778
 201    0.0018019779554789
 202    0.0058482732137126
 203     0.076666814218049
 204     0.012157416048616
 205     0.010355037984448
 206    0.0071263358718964
 207    -0.022138366878835