[Molden Format]
made by pyscf v[2.0.1]
[Atoms] (AU)
He   1   2     1.58445976640282    -1.58445976640282     1.58445976640282
He   2   2     1.58445976640282    -1.58445976640282    -1.58445976640282
He   3   2     1.58445976640282     1.58445976640282    -1.58445976640282
He   4   2     1.58445976640282     1.58445976640282     1.58445976640282
He   5   2    -1.58445976640282     1.58445976640282     1.58445976640282
He   6   2    -1.58445976640282     1.58445976640282    -1.58445976640282
He   7   2    -1.58445976640282    -1.58445976640282    -1.58445976640282
He   8   2    -1.58445976640282    -1.58445976640282     1.58445976640282
[GTO]
1 0
 s    3 1.00
                 38.36   0.040176075383249
                  5.77    0.26136807476949
                  1.24    0.79307123949544
 s    1 1.00
                0.2976                   1
 s    1 1.00
               0.07255                   1
 p    1 1.00
                 1.275                   1
 p    1 1.00
                0.2473                   1

2 0
 s    3 1.00
                 38.36   0.040176075383249
                  5.77    0.26136807476949
                  1.24    0.79307123949544
 s    1 1.00
                0.2976                   1
 s    1 1.00
               0.07255                   1
 p    1 1.00
                 1.275                   1
 p    1 1.00
                0.2473                   1

3 0
 s    3 1.00
                 38.36   0.040176075383249
                  5.77    0.26136807476949
                  1.24    0.79307123949544
 s    1 1.00
                0.2976                   1
 s    1 1.00
               0.07255                   1
 p    1 1.00
                 1.275                   1
 p    1 1.00
                0.2473                   1

4 0
 s    3 1.00
                 38.36   0.040176075383249
                  5.77    0.26136807476949
                  1.24    0.79307123949544
 s    1 1.00
                0.2976                   1
 s    1 1.00
               0.07255                   1
 p    1 1.00
                 1.275                   1
 p    1 1.00
                0.2473                   1

5 0
 s    3 1.00
                 38.36   0.040176075383249
                  5.77    0.26136807476949
                  1.24    0.79307123949544
 s    1 1.00
                0.2976                   1
 s    1 1.00
               0.07255                   1
 p    1 1.00
                 1.275                   1
 p    1 1.00
                0.2473                   1

6 0
 s    3 1.00
                 38.36   0.040176075383249
                  5.77    0.26136807476949
                  1.24    0.79307123949544
 s    1 1.00
                0.2976                   1
 s    1 1.00
               0.07255                   1
 p    1 1.00
                 1.275                   1
 p    1 1.00
                0.2473                   1

7 0
 s    3 1.00
                 38.36   0.040176075383249
                  5.77    0.26136807476949
                  1.24    0.79307123949544
 s    1 1.00
                0.2976                   1
 s    1 1.00
               0.07255                   1
 p    1 1.00
                 1.275                   1
 p    1 1.00
                0.2473                   1

8 0
 s    3 1.00
                 38.36   0.040176075383249
                  5.77    0.26136807476949
                  1.24    0.79307123949544
 s    1 1.00
                0.2976                   1
 s    1 1.00
               0.07255                   1
 p    1 1.00
                 1.275                   1
 p    1 1.00
                0.2473                   1

[5d]
[7f]
[9g]

[MO]
 Sym= A
 Ene=               0
 Spin= Alpha
 Occup=    1.00000
   1       1.2941954942191
   2     -0.67947917767075
   3    -0.011080566931265
   4    -0.010990048809447
   5     0.010990048809447
   6    -0.010990048809446
   7     0.080773988834909
   8    -0.080773988834909
   9     0.080773988834909
  10    -0.023695968692966
  11     0.095641495595613
  12     0.045085748166992
  13    0.0028180610445374
  14    -0.0028180610445375
  15     0.011993733898176
  16     -0.01960425908998
  17      0.01960425908998
  18     0.077895836759443
  19    0.0068524811150411
  20    -0.038581302878444
  21    -0.014886746972321
  22    0.0011349670879489
  23    0.0047205492877152
  24    -0.0047205492877149
  25    -0.0020617259068455
  26    0.0095966918512622
  27    -0.0095966918512624
  28    -0.023695968692966
  29     0.095641495595614
  30     0.045085748166991
  31    0.0028180610445377
  32    -0.011993733898176
  33    0.0028180610445374
  34     -0.01960425908998
  35    -0.077895836759444
  36     -0.01960425908998
  37      0.00685248111504
  38    -0.038581302878443
  39    -0.014886746972322
  40    -0.0047205492877148
  41    0.0047205492877147
  42    0.0011349670879488
  43    -0.0095966918512626
  44    0.0095966918512628
  45    -0.0020617259068451
  46    0.0020559353529427
  47    -0.0060301587411324
  48    0.0013167635677532
  49    0.0006634547507054
  50    -0.00066345475070527
  51    0.00066345475070512
  52    -0.0022099864959838
  53    0.0022099864959834
  54    -0.0022099864959835
  55    0.0068524811150407
  56    -0.038581302878443
  57    -0.014886746972322
  58    -0.0047205492877151
  59    -0.001134967087949
  60    -0.0047205492877149
  61    -0.009596691851262
  62    0.0020617259068453
  63    -0.0095966918512624
  64    -0.023695968692965
  65     0.095641495595613
  66     0.045085748166991
  67     0.011993733898176
  68    -0.0028180610445377
  69    0.0028180610445375
  70     0.077895836759443
  71      0.01960425908998
  72     -0.01960425908998
 Sym= A
 Ene=               1
 Spin= Alpha
 Occup=    1.00000
   1     -0.67947917767075
   2       2.2898400435614
   3     -0.24328749679541
   4    0.0087262866690208
   5    -0.0087262866690204
   6    0.0087262866690203
   7     -0.25316973846471
   8      0.25316973846471
   9     -0.25316973846471
  10     0.095641495595612
  11     -0.28579376841942
  12     -0.27498305636878
  13    -0.014594439638724
  14     0.014594439638723
  15     0.046980407167389
  16      0.10786049283992
  17     -0.10786049283992
  18     -0.44762568396294
  19    -0.038581302878444
  20      0.21852423298601
  21     0.086343603255715
  22    -0.0058025868531599
  23    -0.0088891720813103
  24    0.0088891720813098
  25     0.015394985983528
  26     -0.10140895499481
  27      0.10140895499481
  28     0.095641495595613
  29     -0.28579376841942
  30     -0.27498305636878
  31    -0.014594439638724
  32    -0.046980407167389
  33    -0.014594439638723
  34      0.10786049283992
  35      0.44762568396294
  36      0.10786049283992
  37    -0.038581302878443
  38      0.21852423298601
  39     0.086343603255716
  40    0.0088891720813099
  41    -0.0088891720813098
  42     -0.00580258685316
  43      0.10140895499481
  44     -0.10140895499481
  45     0.015394985983527
  46    -0.0060301587411324
  47     0.029724021866541
  48     0.011516146878047
  49    -0.0058804311359803
  50      0.00588043113598
  51    -0.0058804311359801
  52     0.015675003789453
  53    -0.015675003789452
  54     0.015675003789452
  55    -0.038581302878443
  56      0.21852423298601
  57     0.086343603255716
  58    0.0088891720813101
  59    0.0058025868531601
  60      0.00888917208131
  61       0.1014089549948
  62    -0.015394985983527
  63       0.1014089549948
  64     0.095641495595613
  65     -0.28579376841942
  66     -0.27498305636878
  67     0.046980407167388
  68     0.014594439638723
  69    -0.014594439638723
  70     -0.44762568396294
  71     -0.10786049283992
  72      0.10786049283992
 Sym= A
 Ene=               2
 Spin= Alpha
 Occup=    1.00000
   1    -0.011080566931264
   2     -0.24328749679541
   3       3.9462592613282
   4       0.1002274724884
   5      -0.1002274724884
   6       0.1002274724884
   7     -0.59816911026969
   8      0.59816911026969
   9      -0.5981691102697
  10     0.045085748166997
  11     -0.27498305636879
  12      -1.4803417957528
  13    -0.0052317766475778
  14    0.0052317766475785
  15     0.045229388511637
  16       0.0508136345681
  17    -0.050813634568101
  18     -0.50640005667064
  19    -0.014886746972323
  20     0.086343603255717
  21      0.50362923340112
  22    -0.0023314782652866
  23    -0.0060479196281312
  24    0.0060479196281315
  25    -0.0025183761837146
  26    -0.020231135797814
  27     0.020231135797815
  28     0.045085748166993
  29     -0.27498305636878
  30      -1.4803417957528
  31     -0.00523177664758
  32    -0.045229388511637
  33    -0.0052317766475798
  34     0.050813634568106
  35      0.50640005667064
  36     0.050813634568105
  37    -0.014886746972323
  38     0.086343603255717
  39      0.50362923340114
  40     0.006047919628131
  41    -0.0060479196281311
  42    -0.002331478265286
  43     0.020231135797817
  44    -0.020231135797818
  45    -0.0025183761837173
  46    0.0013167635677503
  47     0.011516146878053
  48     -0.19400020680799
  49    -0.00054661857441773
  50    0.0005466185744181
  51    -0.00054661857441785
  52    -0.0025312916305779
  53    0.0025312916305788
  54    -0.0025312916305787
  55    -0.014886746972324
  56     0.086343603255718
  57      0.50362923340113
  58    0.0060479196281315
  59    0.0023314782652868
  60    0.0060479196281318
  61     0.020231135797814
  62     0.002518376183716
  63     0.020231135797816
  64     0.045085748166995
  65     -0.27498305636878
  66      -1.4803417957528
  67     0.045229388511638
  68    0.0052317766475798
  69    -0.0052317766475806
  70     -0.50640005667064
  71    -0.050813634568106
  72     0.050813634568107
 Sym= A
 Ene=               3
 Spin= Alpha
 Occup=    1.00000
   1    -0.010990048809447
   2    0.0087262866690208
   3       0.1002274724884
   4       1.1220322933498
   5    -0.0039322847307651
   6     0.003932284730765
   7     -0.36494686116026
   8     0.014849716267313
   9    -0.014849716267313
  10    0.0028180610445378
  11    -0.014594439638724
  12    -0.0052317766475791
  13    -0.00053959286566375
  14    -0.001145679364186
  15    -0.0022640856793404
  16     0.026932609973162
  17    0.0045216889636795
  18    -0.0059161726793443
  19    0.0011349670879488
  20    -0.0058025868531604
  21    -0.0023314782652856
  22    -2.6704285033246e-05
  23    -0.00035449835538037
  24    0.00035449835537979
  25    -0.004620642100087
  26    0.0035204827481614
  27    -0.0035204827481609
  28    0.0028180610445379
  29    -0.014594439638724
  30    -0.0052317766475809
  31    -0.00053959286566378
  32      0.00226408567934
  33    0.0011456793641859
  34     0.026932609973161
  35    0.0059161726793447
  36    -0.0045216889636794
  37    0.0047205492877154
  38    -0.0088891720813105
  39    -0.0060479196281321
  40    0.0034253498969372
  41    -0.003240949256879
  42    -0.00035449835538022
  43    -0.013270014084542
  44     0.024679339098342
  45    0.0029508355339344
  46    -0.00066345475070528
  47    0.0058804311359805
  48    0.00054661857441822
  49    0.00094550544702752
  50    -0.0012788426713883
  51    0.0012788426713883
  52    -0.0019150088937701
  53    -0.001123000428735
  54    0.0011230004287356
  55    0.0047205492877146
  56    -0.0088891720813093
  57    -0.0060479196281334
  58    0.0034253498969374
  59    0.00035449835537998
  60    0.0032409492568792
  61    -0.013270014084542
  62    -0.0029508355339334
  63    -0.024679339098343
  64    -0.011993733898177
  65    -0.046980407167388
  66    -0.045229388511638
  67    -0.033436751823186
  68    -0.0022640856793401
  69    0.0022640856793405
  70    -0.015390657537247
  71     0.018142080946228
  72    -0.018142080946229
 Sym= A
 Ene=               4
 Spin= Alpha
 Occup=    1.00000
   1     0.010990048809447
   2    -0.0087262866690204
   3      -0.1002274724884
   4    -0.0039322847307651
   5       1.1220322933498
   6    -0.0039322847307647
   7     0.014849716267313
   8     -0.36494686116026
   9     0.014849716267313
  10    -0.002818061044538
  11     0.014594439638725
  12    0.0052317766475784
  13    -0.0011456793641857
  14    -0.00053959286566376
  15    0.0022640856793402
  16    0.0045216889636795
  17     0.026932609973162
  18    0.0059161726793439
  19    -0.0047205492877151
  20    0.0088891720813104
  21    0.0060479196281321
  22    0.00035449835538004
  23    0.0034253498969373
  24    -0.0032409492568791
  25    -0.0029508355339338
  26    -0.013270014084542
  27     0.024679339098343
  28     0.011993733898177
  29     0.046980407167389
  30     0.045229388511639
  31    -0.0022640856793402
  32    -0.033436751823186
  33    -0.0022640856793406
  34     0.018142080946227
  35    -0.015390657537247
  36     0.018142080946228
  37    -0.0047205492877148
  38    0.0088891720813094
  39    0.0060479196281333
  40    -0.0032409492568789
  41    0.0034253498969372
  42    0.00035449835537988
  43     0.024679339098341
  44    -0.013270014084543
  45    -0.0029508355339343
  46    0.00066345475070539
  47    -0.0058804311359805
  48    -0.00054661857441911
  49    -0.0012788426713884
  50    0.00094550544702773
  51    -0.0012788426713882
  52    -0.0011230004287351
  53    -0.0019150088937697
  54    -0.0011230004287357
  55    -0.0011349670879489
  56    0.0058025868531609
  57    0.0023314782652873
  58    -0.00035449835538023
  59    -2.6704285033652e-05
  60    -0.00035449835537982
  61    0.0035204827481613
  62    -0.0046206421000866
  63     0.003520482748161
  64    -0.002818061044538
  65     0.014594439638724
  66    0.0052317766475781
  67      0.00226408567934
  68    -0.00053959286566352
  69    -0.0011456793641859
  70    0.0059161726793446
  71     0.026932609973162
  72    0.0045216889636794
 Sym= A
 Ene=               5
 Spin= Alpha
 Occup=    1.00000
   1    -0.010990048809446
   2    0.0087262866690203
   3       0.1002274724884
   4     0.003932284730765
   5    -0.0039322847307647
   6       1.1220322933498
   7    -0.014849716267312
   8     0.014849716267313
   9     -0.36494686116026
  10    -0.011993733898177
  11    -0.046980407167388
  12    -0.045229388511638
  13    0.0022640856793403
  14    -0.0022640856793403
  15    -0.033436751823186
  16    -0.018142080946229
  17     0.018142080946228
  18    -0.015390657537247
  19    0.0047205492877155
  20    -0.0088891720813103
  21    -0.0060479196281332
  22    -0.00035449835538008
  23    -0.0032409492568784
  24    0.0034253498969371
  25    0.0029508355339343
  26     0.024679339098343
  27    -0.013270014084542
  28    0.0028180610445377
  29    -0.014594439638724
  30    -0.0052317766475787
  31    0.0011456793641864
  32    0.0022640856793398
  33    -0.00053959286566377
  34    -0.0045216889636801
  35    0.0059161726793443
  36     0.026932609973162
  37    0.0011349670879483
  38    -0.005802586853161
  39    -0.0023314782652859
  40    0.00035449835538031
  41    -0.00035449835538001
  42    -2.6704285034042e-05
  43    -0.0035204827481618
  44    0.0035204827481614
  45    -0.0046206421000868
  46    -0.00066345475070533
  47    0.0058804311359817
  48    0.00054661857441766
  49    0.0012788426713881
  50    -0.0012788426713884
  51    0.00094550544702753
  52    0.0011230004287356
  53    -0.0011230004287358
  54     -0.00191500889377
  55    0.0047205492877151
  56    -0.0088891720813104
  57    -0.0060479196281321
  58    0.0032409492568788
  59    0.00035449835538004
  60    0.0034253498969374
  61    -0.024679339098342
  62    -0.0029508355339344
  63    -0.013270014084542
  64    0.0028180610445384
  65    -0.014594439638724
  66    -0.0052317766475796
  67    -0.0022640856793399
  68    -0.0011456793641864
  69    -0.00053959286566402
  70    -0.0059161726793442
  71    0.0045216889636797
  72     0.026932609973163
 Sym= A
 Ene=               6
 Spin= Alpha
 Occup=    1.00000
   1     0.080773988834909
   2     -0.25316973846471
   3     -0.59816911026969
   4     -0.36494686116026
   5     0.014849716267313
   6    -0.014849716267312
   7        1.747099634602
   8    -0.059627734853172
   9      0.05962773485317
  10    -0.019604259089981
  11      0.10786049283992
  12       0.0508136345681
  13     0.026932609973162
  14    0.0045216889636792
  15     0.018142080946228
  16     -0.21662465266734
  17    -0.019326676742121
  18    0.0039541986607361
  19    -0.0020617259068458
  20     0.015394985983529
  21    -0.0025183761837139
  22    -0.0046206421000868
  23    0.0029508355339342
  24    -0.002950835533934
  25      0.05712391056676
  26    -0.019247119731589
  27     0.019247119731589
  28     -0.01960425908998
  29      0.10786049283992
  30     0.050813634568105
  31     0.026932609973162
  32    -0.018142080946228
  33    -0.004521688963679
  34     -0.21662465266734
  35    -0.003954198660737
  36      0.01932667674212
  37    0.0095966918512622
  38      -0.1014089549948
  39    -0.020231135797817
  40    -0.013270014084543
  41     0.024679339098342
  42    0.0035204827481608
  43    -0.037577820674768
  44    -0.057353009633976
  45    -0.019247119731588
  46    0.0022099864959845
  47    -0.015675003789455
  48    0.0025312916305776
  49    -0.0019150088937701
  50    -0.0011230004287348
  51    0.0011230004287352
  52     0.027170701192201
  53     0.019465195870692
  54    -0.019465195870693
  55    0.0095966918512633
  56     -0.10140895499481
  57    -0.020231135797811
  58    -0.013270014084542
  59    -0.003520482748161
  60    -0.024679339098343
  61    -0.037577820674769
  62     0.019247119731588
  63     0.057353009633978
  64    -0.077895836759443
  65      0.44762568396294
  66      0.50640005667065
  67    -0.015390657537246
  68    -0.0059161726793448
  69    0.0059161726793438
  70      0.65222557475669
  71    0.0039541986607382
  72    -0.0039541986607356
 Sym= A
 Ene=               7
 Spin= Alpha
 Occup=    1.00000
   1    -0.080773988834909
   2      0.25316973846471
   3      0.59816911026969
   4     0.014849716267313
   5     -0.36494686116026
   6     0.014849716267313
   7    -0.059627734853172
   8        1.747099634602
   9    -0.059627734853171
  10     0.019604259089981
  11     -0.10786049283992
  12    -0.050813634568098
  13    0.0045216889636791
  14     0.026932609973162
  15    -0.018142080946229
  16    -0.019326676742121
  17     -0.21662465266734
  18    -0.0039541986607355
  19    -0.0095966918512626
  20      0.10140895499481
  21     0.020231135797811
  22    -0.0035204827481609
  23    -0.013270014084543
  24     0.024679339098342
  25     0.019247119731588
  26    -0.037577820674768
  27    -0.057353009633978
  28     0.077895836759443
  29     -0.44762568396294
  30     -0.50640005667065
  31    -0.0059161726793446
  32    -0.015390657537246
  33    -0.0059161726793436
  34    0.0039541986607386
  35      0.65222557475669
  36    0.0039541986607354
  37    -0.0095966918512637
  38      0.10140895499481
  39     0.020231135797813
  40     0.024679339098342
  41    -0.013270014084542
  42    -0.003520482748161
  43    -0.057353009633976
  44    -0.037577820674768
  45     0.019247119731589
  46    -0.0022099864959847
  47     0.015675003789455
  48    -0.0025312916305747
  49    -0.001123000428735
  50    -0.0019150088937699
  51    -0.0011230004287353
  52     0.019465195870693
  53     0.027170701192201
  54     0.019465195870694
  55    0.0020617259068465
  56     -0.01539498598353
  57     0.002518376183712
  58    0.0029508355339347
  59    -0.0046206421000868
  60     0.002950835533934
  61     -0.01924711973159
  62     0.057123910566761
  63    -0.019247119731589
  64     0.019604259089981
  65     -0.10786049283992
  66    -0.050813634568101
  67    -0.018142080946228
  68     0.026932609973162
  69    0.0045216889636791
  70    -0.0039541986607368
  71     -0.21662465266734
  72    -0.019326676742121
 Sym= A
 Ene=               8
 Spin= Alpha
 Occup=    0.00000
   1     0.080773988834909
   2     -0.25316973846471
   3      -0.5981691102697
   4    -0.014849716267313
   5     0.014849716267313
   6     -0.36494686116026
   7      0.05962773485317
   8    -0.059627734853171
   9        1.747099634602
  10    -0.077895836759442
  11      0.44762568396294
  12      0.50640005667065
  13    0.0059161726793437
  14    -0.0059161726793441
  15    -0.015390657537247
  16    -0.003954198660736
  17    0.0039541986607361
  18       0.6522255747567
  19    0.0095966918512629
  20     -0.10140895499481
  21    -0.020231135797815
  22    0.0035204827481608
  23     0.024679339098342
  24    -0.013270014084542
  25    -0.019247119731588
  26    -0.057353009633978
  27    -0.037577820674769
  28    -0.019604259089981
  29      0.10786049283992
  30     0.050813634568105
  31    -0.0045216889636796
  32    -0.018142080946228
  33     0.026932609973162
  34     0.019326676742121
  35    -0.0039541986607368
  36     -0.21662465266734
  37    -0.0020617259068455
  38      0.01539498598353
  39    -0.0025183761837182
  40    -0.0029508355339339
  41    0.0029508355339343
  42    -0.0046206421000865
  43     0.019247119731589
  44    -0.019247119731588
  45     0.057123910566762
  46    0.0022099864959844
  47    -0.015675003789455
  48    0.0025312916305796
  49    0.0011230004287353
  50    -0.0011230004287352
  51     -0.00191500889377
  52    -0.019465195870693
  53     0.019465195870693
  54     0.027170701192202
  55     0.009596691851263
  56     -0.10140895499481
  57    -0.020231135797816
  58    -0.024679339098342
  59    -0.0035204827481612
  60    -0.013270014084543
  61     0.057353009633978
  62     0.019247119731589
  63    -0.037577820674769
  64    -0.019604259089982
  65      0.10786049283992
  66     0.050813634568106
  67     0.018142080946228
  68    0.0045216889636798
  69     0.026932609973163
  70    0.0039541986607359
  71    -0.019326676742121
  72     -0.21662465266734
 Sym= A
 Ene=               9
 Spin= Alpha
 Occup=    0.00000
   1    -0.023695968692966
   2     0.095641495595612
   3     0.045085748166997
   4    0.0028180610445378
   5    -0.002818061044538
   6    -0.011993733898177
   7    -0.019604259089981
   8     0.019604259089981
   9    -0.077895836759442
  10       1.2941954942191
  11     -0.67947917767074
  12    -0.011080566931274
  13    -0.010990048809446
  14     0.010990048809446
  15     0.010990048809446
  16     0.080773988834909
  17    -0.080773988834909
  18    -0.080773988834908
  19    -0.023695968692967
  20     0.095641495595613
  21     0.045085748166996
  22    0.0028180610445377
  23    -0.011993733898177
  24    -0.0028180610445374
  25     -0.01960425908998
  26    -0.077895836759443
  27     0.019604259089979
  28    0.0068524811150396
  29    -0.038581302878443
  30    -0.014886746972323
  31    0.0011349670879482
  32    0.0047205492877147
  33    0.0047205492877153
  34    -0.002061725906845
  35    0.0095966918512627
  36    0.0095966918512613
  37    0.0020559353529439
  38    -0.0060301587411319
  39    0.0013167635677513
  40    0.00066345475070483
  41    -0.00066345475070483
  42    -0.00066345475070466
  43    -0.0022099864959836
  44    0.0022099864959841
  45    0.0022099864959819
  46    0.0068524811150404
  47    -0.038581302878443
  48    -0.014886746972323
  49    -0.0047205492877148
  50    0.0047205492877155
  51    -0.0011349670879474
  52    -0.0095966918512624
  53    0.0095966918512608
  54    0.0020617259068434
  55    -0.023695968692966
  56     0.095641495595612
  57     0.045085748166995
  58     0.011993733898177
  59    -0.0028180610445369
  60    -0.0028180610445377
  61     0.077895836759444
  62     0.019604259089979
  63      0.01960425908998
  64    0.0068524811150394
  65    -0.038581302878442
  66    -0.014886746972324
  67    -0.0047205492877147
  68    -0.0011349670879482
  69    0.0047205492877153
  70    -0.0095966918512633
  71    0.0020617259068455
  72    0.0095966918512624
 Sym= A
 Ene=              10
 Spin= Alpha
 Occup=    0.00000
   1     0.095641495595613
   2     -0.28579376841942
   3     -0.27498305636879
   4    -0.014594439638724
   5     0.014594439638725
   6    -0.046980407167388
   7      0.10786049283992
   8     -0.10786049283992
   9      0.44762568396294
  10     -0.67947917767074
  11       2.2898400435614
  12     -0.24328749679539
  13    0.0087262866690208
  14    -0.0087262866690214
  15    -0.0087262866690205
  16     -0.25316973846472
  17      0.25316973846472
  18      0.25316973846471
  19     0.095641495595613
  20     -0.28579376841942
  21     -0.27498305636879
  22    -0.014594439638724
  23    -0.046980407167388
  24     0.014594439638723
  25      0.10786049283992
  26      0.44762568396294
  27     -0.10786049283992
  28    -0.038581302878442
  29      0.21852423298601
  30     0.086343603255717
  31    -0.0058025868531603
  32    -0.0088891720813101
  33    -0.0088891720813105
  34     0.015394985983529
  35     -0.10140895499481
  36      -0.1014089549948
  37    -0.006030158741131
  38     0.029724021866538
  39     0.011516146878052
  40    -0.0058804311359804
  41    0.0058804311359807
  42    0.0058804311359795
  43     0.015675003789455
  44    -0.015675003789455
  45     -0.01567500378945
  46    -0.038581302878444
  47      0.21852423298601
  48     0.086343603255718
  49    0.0088891720813102
  50    -0.0088891720813107
  51    0.0058025868531584
  52      0.10140895499481
  53      -0.1014089549948
  54    -0.015394985983524
  55     0.095641495595613
  56     -0.28579376841942
  57     -0.27498305636879
  58     0.046980407167389
  59     0.014594439638722
  60     0.014594439638723
  61     -0.44762568396294
  62     -0.10786049283992
  63     -0.10786049283992
  64    -0.038581302878442
  65      0.21852423298601
  66      0.08634360325572
  67    0.0088891720813095
  68    0.0058025868531602
  69    -0.0088891720813099
  70      0.10140895499481
  71    -0.015394985983529
  72     -0.10140895499481
 Sym= A
 Ene=              11
 Spin= Alpha
 Occup=    0.00000
   1     0.045085748166992
   2     -0.27498305636878
   3      -1.4803417957528
   4    -0.0052317766475791
   5    0.0052317766475784
   6    -0.045229388511638
   7       0.0508136345681
   8    -0.050813634568098
   9      0.50640005667065
  10    -0.011080566931274
  11     -0.24328749679539
  12       3.9462592613282
  13       0.1002274724884
  14      -0.1002274724884
  15      -0.1002274724884
  16      -0.5981691102697
  17       0.5981691102697
  18      0.59816911026969
  19     0.045085748166997
  20     -0.27498305636879
  21      -1.4803417957528
  22    -0.0052317766475795
  23     -0.04522938851164
  24    0.0052317766475804
  25     0.050813634568108
  26      0.50640005667065
  27    -0.050813634568106
  28    -0.014886746972321
  29     0.086343603255712
  30      0.50362923340113
  31    -0.0023314782652857
  32    -0.0060479196281327
  33    -0.0060479196281319
  34    -0.002518376183716
  35    -0.020231135797811
  36    -0.020231135797818
  37    0.0013167635677527
  38      0.01151614687805
  39       -0.194000206808
  40    -0.00054661857441684
  41    0.0005466185744166
  42    0.00054661857441704
  43    -0.002531291630577
  44    0.0025312916305793
  45    0.0025312916305802
  46    -0.014886746972321
  47     0.086343603255718
  48      0.50362923340114
  49    0.0060479196281313
  50    -0.0060479196281314
  51     0.002331478265286
  52      0.02023113579782
  53    -0.020231135797821
  54    0.0025183761837186
  55     0.045085748166997
  56     -0.27498305636879
  57      -1.4803417957528
  58     0.045229388511639
  59    0.0052317766475792
  60    0.0052317766475795
  61     -0.50640005667065
  62    -0.050813634568108
  63    -0.050813634568107
  64    -0.014886746972323
  65     0.086343603255717
  66      0.50362923340113
  67    0.0060479196281329
  68    0.0023314782652852
  69    -0.0060479196281303
  70      0.02023113579781
  71    0.0025183761837173
  72     -0.02023113579782
 Sym= A
 Ene=              12
 Spin= Alpha
 Occup=    0.00000
   1    0.0028180610445375
   2    -0.014594439638724
   3    -0.0052317766475778
   4    -0.00053959286566377
   5    -0.0011456793641858
   6    0.0022640856793403
   7     0.026932609973162
   8    0.0045216889636791
   9    0.0059161726793438
  10    -0.010990048809446
  11    0.0087262866690208
  12       0.1002274724884
  13       1.1220322933498
  14    -0.0039322847307648
  15    -0.0039322847307651
  16     -0.36494686116026
  17     0.014849716267313
  18     0.014849716267312
  19    0.0028180610445377
  20    -0.014594439638724
  21    -0.0052317766475791
  22    -0.00053959286566349
  23    0.0022640856793397
  24    -0.0011456793641859
  25     0.026932609973162
  26     0.005916172679345
  27    0.0045216889636791
  28    0.0011349670879485
  29    -0.0058025868531603
  30    -0.0023314782652868
  31    -2.670428503421e-05
  32    -0.00035449835538003
  33    -0.00035449835538002
  34    -0.0046206421000859
  35     0.003520482748161
  36    0.0035204827481608
  37    -0.0006634547507043
  38    0.0058804311359799
  39    0.00054661857441851
  40    0.0009455054470274
  41    -0.0012788426713882
  42    -0.0012788426713879
  43    -0.0019150088937694
  44    -0.0011230004287354
  45    -0.0011230004287353
  46    0.0047205492877146
  47    -0.0088891720813097
  48    -0.0060479196281322
  49    0.0034253498969373
  50    -0.0032409492568787
  51    0.00035449835538025
  52    -0.013270014084542
  53     0.024679339098342
  54    -0.0029508355339338
  55    -0.011993733898177
  56    -0.046980407167388
  57    -0.045229388511638
  58    -0.033436751823185
  59    -0.0022640856793403
  60    -0.0022640856793402
  61    -0.015390657537247
  62     0.018142080946229
  63     0.018142080946228
  64    0.0047205492877148
  65    -0.0088891720813099
  66    -0.0060479196281332
  67    0.0034253498969372
  68    0.00035449835537951
  69    -0.0032409492568791
  70    -0.013270014084542
  71    -0.0029508355339336
  72     0.024679339098343
 Sym= A
 Ene=              13