[Molden Format]
made by pyscf v[2.2.1]
[Atoms] (AU)
Fe   1   26    10.35569916261654     2.17318504324982   -15.17450078025744
S   2   16     7.65339080448850    -1.15273293598469   -16.53510358994429
S   3   16    14.15404867299231     0.79368497231733   -17.08312416606816
Fe   4   26    11.41394579237297    -2.30546587196938   -18.19806257956155
S   5   16    10.33680190137089     2.36215765570633   -10.54467177507304
S   6   16     8.74943195673624     6.19830168857340   -16.57289811243559
S   7   16    10.86592521624911    -2.83458918684759   -22.77119980100900
S   8   16    12.96352121451632    -6.44396608476686   -16.74297346364645
C   9   6    10.41239094635349     8.40928125431453   -14.19184319548361
H   10   1    12.26432254842725     9.12737718164925   -14.96663090655529
H   11   1     9.20296622663185    10.07224024393178   -13.70051440309670
H   12   1    10.80923343251215     7.25654831832984   -12.45329516088376
C   13   6     6.80301404843422     3.21253441176060   -10.46908273009044
H   14   1     5.68807563494084     1.51178089965205   -10.99820604496866
H   15   1     6.19830168857340     3.89283581660403    -8.54156208303408
H   16   1     6.46286334601251     4.68652078892135   -11.92417184600554
C   17   6     9.84547310898397    -7.97464424566456   -17.87680913838549
H   18   1     9.63760323528181    -7.57780175950590   -19.93661061416140
H   19   1     9.84547310898397   -10.05334298268613   -17.49886391347247
H   20   1     8.25810316434932    -7.02978118338203   -16.87525429236600
C   21   6    14.41861033043142    -3.49599333044536   -23.13024776467636
H   22   1    14.92883638406399    -3.89283581660403   -25.15225471796098
H   23   1    15.49575422143351    -1.81413707958246   -22.41215183734163
H   24   1    14.90993912281834    -5.14005505881697   -21.90192578370907
[GTO]
1 0
 s    6 1.00
          60923.640643  0.0017552243692958
          9147.8893982   0.013449023284001
          2081.3505927   0.066678874640978
          587.55977067    0.23176348548844
           191.0904399    0.46945550248188
          65.732730112     0.3596824938678
 s    3 1.00
          127.25891928   -0.10723431835929
           14.83091301    0.62971616328466
          6.0653307408    0.44472317896179
 s    3 1.00
           10.44994371   -0.21694289195548
          1.7245228003    0.69457867408393
         0.71772177325    0.43298308896347
 s    1 1.00
        0.091449828308                   1
 s    1 1.00
        0.033706691021                   1
 p    5 1.00
          773.43750995  0.0091440529992506
          182.15149714   0.067887577136571
          57.547272758    0.26167978878504
          20.614988935    0.51088040113251
           7.634855789    0.33235475570224
 p    3 1.00
           3.871932799    0.33193859098144
          1.4924724132     0.5553666555499
         0.56061284958    0.23106034201617
 p    1 1.00
              0.134915                   1
 d    4 1.00
          38.968133419   0.033335938558743
          10.800067078    0.17766212505983
          3.6136457999      0.441281781625
          1.2129967888    0.57089200490673
 d    1 1.00
          0.3652439317                   1
 f    1 1.00
                 1.598                   1

2 0
 s    5 1.00
           9184.930301  -0.0054729466134731
          1381.5105503  -0.040954402155135
           313.8714758   -0.18475828956188
          88.053870623   -0.47567280643953
          27.039914905   -0.43495153584169
 s    3 1.00
          45.648731303  -0.091904045808942
          4.9664522326    0.55698777214497
          2.0116242047     0.5111546829846
 s    1 1.00
         0.35661077013                   1
 s    1 1.00
         0.13507221477                   1
 p    5 1.00
          261.98233439  -0.009183054659266
          61.306894736   -0.06590222652599
          19.103729887   -0.24587784518735
          6.6567720378    -0.4823147107602
          2.3959635161   -0.38956314351423
 p    1 1.00
         0.61776161679                   1
 p    1 1.00
         0.16993376871                   1
 d    1 1.00
                  0.55                   1

3 0
 s    5 1.00
           9184.930301  -0.0054729466134731
          1381.5105503  -0.040954402155135
           313.8714758   -0.18475828956188
          88.053870623   -0.47567280643953
          27.039914905   -0.43495153584169
 s    3 1.00
          45.648731303  -0.091904045808942
          4.9664522326    0.55698777214497
          2.0116242047     0.5111546829846
 s    1 1.00
         0.35661077013                   1
 s    1 1.00
         0.13507221477                   1
 p    5 1.00
          261.98233439  -0.009183054659266
          61.306894736   -0.06590222652599
          19.103729887   -0.24587784518735
          6.6567720378    -0.4823147107602
          2.3959635161   -0.38956314351423
 p    1 1.00
         0.61776161679                   1
 p    1 1.00
         0.16993376871                   1
 d    1 1.00
                  0.55                   1

4 0
 s    6 1.00
          60923.640643  0.0017552243692958
          9147.8893982   0.013449023284001
          2081.3505927   0.066678874640978
          587.55977067    0.23176348548844
           191.0904399    0.46945550248188
          65.732730112     0.3596824938678
 s    3 1.00
          127.25891928   -0.10723431835929
           14.83091301    0.62971616328466
          6.0653307408    0.44472317896179
 s    3 1.00
           10.44994371   -0.21694289195548
          1.7245228003    0.69457867408393
         0.71772177325    0.43298308896347
 s    1 1.00
        0.091449828308                   1
 s    1 1.00
        0.033706691021                   1
 p    5 1.00
          773.43750995  0.0091440529992506
          182.15149714   0.067887577136571
          57.547272758    0.26167978878504
          20.614988935    0.51088040113251
           7.634855789    0.33235475570224
 p    3 1.00
           3.871932799    0.33193859098144
          1.4924724132     0.5553666555499
         0.56061284958    0.23106034201617
 p    1 1.00
              0.134915                   1
 d    4 1.00
          38.968133419   0.033335938558743
          10.800067078    0.17766212505983
          3.6136457999      0.441281781625
          1.2129967888    0.57089200490673
 d    1 1.00
          0.3652439317                   1
 f    1 1.00
                 1.598                   1

5 0
 s    5 1.00
           9184.930301  -0.0054729466134731
          1381.5105503  -0.040954402155135
           313.8714758   -0.18475828956188
          88.053870623   -0.47567280643953
          27.039914905   -0.43495153584169
 s    3 1.00
          45.648731303  -0.091904045808942
          4.9664522326    0.55698777214497
          2.0116242047     0.5111546829846
 s    1 1.00
         0.35661077013                   1
 s    1 1.00
         0.13507221477                   1
 p    5 1.00
          261.98233439  -0.009183054659266
          61.306894736   -0.06590222652599
          19.103729887   -0.24587784518735
          6.6567720378    -0.4823147107602
          2.3959635161   -0.38956314351423
 p    1 1.00
         0.61776161679                   1
 p    1 1.00
         0.16993376871                   1
 d    1 1.00
                  0.55                   1

6 0
 s    5 1.00
           9184.930301  -0.0054729466134731
          1381.5105503  -0.040954402155135
           313.8714758   -0.18475828956188
          88.053870623   -0.47567280643953
          27.039914905   -0.43495153584169
 s    3 1.00
          45.648731303  -0.091904045808942
          4.9664522326    0.55698777214497
          2.0116242047     0.5111546829846
 s    1 1.00
         0.35661077013                   1
 s    1 1.00
         0.13507221477                   1
 p    5 1.00
          261.98233439  -0.009183054659266
          61.306894736   -0.06590222652599
          19.103729887   -0.24587784518735
          6.6567720378    -0.4823147107602
          2.3959635161   -0.38956314351423
 p    1 1.00
         0.61776161679                   1
 p    1 1.00
         0.16993376871                   1
 d    1 1.00
                  0.55                   1

7 0
 s    5 1.00
           9184.930301  -0.0054729466134731
          1381.5105503  -0.040954402155135
           313.8714758   -0.18475828956188
          88.053870623   -0.47567280643953
          27.039914905   -0.43495153584169
 s    3 1.00
          45.648731303  -0.091904045808942
          4.9664522326    0.55698777214497
          2.0116242047     0.5111546829846
 s    1 1.00
         0.35661077013                   1
 s    1 1.00
         0.13507221477                   1
 p    5 1.00
          261.98233439  -0.009183054659266
          61.306894736   -0.06590222652599
          19.103729887   -0.24587784518735
          6.6567720378    -0.4823147107602
          2.3959635161   -0.38956314351423
 p    1 1.00
         0.61776161679                   1
 p    1 1.00
         0.16993376871                   1
 d    1 1.00
                  0.55                   1

8 0
 s    5 1.00
           9184.930301  -0.0054729466134731
          1381.5105503  -0.040954402155135
           313.8714758   -0.18475828956188
          88.053870623   -0.47567280643953
          27.039914905   -0.43495153584169
 s    3 1.00
          45.648731303  -0.091904045808942
          4.9664522326    0.55698777214497
          2.0116242047     0.5111546829846
 s    1 1.00
         0.35661077013                   1
 s    1 1.00
         0.13507221477                   1
 p    5 1.00
          261.98233439  -0.009183054659266
          61.306894736   -0.06590222652599
          19.103729887   -0.24587784518735
          6.6567720378    -0.4823147107602
          2.3959635161   -0.38956314351423
 p    1 1.00
         0.61776161679                   1
 p    1 1.00
         0.16993376871                   1
 d    1 1.00
                  0.55                   1

9 0
 s    5 1.00
          1238.4016938  0.0055173650481097
          186.29004992   0.041088828555946
          42.251176346     0.1822538212649
          11.676557932    0.46828459437429
          3.5930506482    0.44575817336002
 s    1 1.00
         0.40245147363                   1
 s    1 1.00
         0.13090182668                   1
 p    3 1.00
          9.4680970621   0.056888332011037
          2.0103545142    0.31294059336471
         0.54771004707    0.76065016509135
 p    1 1.00
         0.15268613795                   1
 d    1 1.00
                   0.8                   1

10 0
 s    3 1.00
             13.010701   0.033485484812989
             1.9622572    0.23472187088125
            0.44453796    0.81377028525955
 s    1 1.00
            0.12194962                   1
 p    1 1.00
                   0.8                   1

11 0
 s    3 1.00
             13.010701   0.033485484812989
             1.9622572    0.23472187088125
            0.44453796    0.81377028525955
 s    1 1.00
            0.12194962                   1
 p    1 1.00
                   0.8                   1

12 0
 s    3 1.00
             13.010701   0.033485484812989
             1.9622572    0.23472187088125
            0.44453796    0.81377028525955
 s    1 1.00
            0.12194962                   1
 p    1 1.00
                   0.8                   1

13 0
 s    5 1.00
          1238.4016938  0.0055173650481097
          186.29004992   0.041088828555946
          42.251176346     0.1822538212649
          11.676557932    0.46828459437429
          3.5930506482    0.44575817336002
 s    1 1.00
         0.40245147363                   1
 s    1 1.00
         0.13090182668                   1
 p    3 1.00
          9.4680970621   0.056888332011037
          2.0103545142    0.31294059336471
         0.54771004707    0.76065016509135
 p    1 1.00
         0.15268613795                   1
 d    1 1.00
                   0.8                   1

14 0
 s    3 1.00
             13.010701   0.033485484812989
             1.9622572    0.23472187088125
            0.44453796    0.81377028525955
 s    1 1.00
            0.12194962                   1
 p    1 1.00
                   0.8                   1

15 0
 s    3 1.00
             13.010701   0.033485484812989
             1.9622572    0.23472187088125
            0.44453796    0.81377028525955
 s    1 1.00
            0.12194962                   1
 p    1 1.00
                   0.8                   1

16 0
 s    3 1.00
             13.010701   0.033485484812989
             1.9622572    0.23472187088125
            0.44453796    0.81377028525955
 s    1 1.00
            0.12194962                   1
 p    1 1.00
                   0.8                   1

17 0
 s    5 1.00
          1238.4016938  0.0055173650481097
          186.29004992   0.041088828555946
          42.251176346     0.1822538212649
          11.676557932    0.46828459437429
          3.5930506482    0.44575817336002
 s    1 1.00
         0.40245147363                   1
 s    1 1.00
         0.13090182668                   1
 p    3 1.00
          9.4680970621   0.056888332011037
          2.0103545142    0.31294059336471
         0.54771004707    0.76065016509135
 p    1 1.00
         0.15268613795                   1
 d    1 1.00
                   0.8                   1

18 0
 s    3 1.00
             13.010701   0.033485484812989
             1.9622572    0.23472187088125
            0.44453796    0.81377028525955
 s    1 1.00
            0.12194962                   1
 p    1 1.00
                   0.8                   1

19 0
 s    3 1.00
             13.010701   0.033485484812989
             1.9622572    0.23472187088125
            0.44453796    0.81377028525955
 s    1 1.00
            0.12194962                   1
 p    1 1.00
                   0.8                   1

20 0
 s    3 1.00
             13.010701   0.033485484812989
             1.9622572    0.23472187088125
            0.44453796    0.81377028525955
 s    1 1.00
            0.12194962                   1
 p    1 1.00
                   0.8                   1

21 0
 s    5 1.00
          1238.4016938  0.0055173650481097
          186.29004992   0.041088828555946
          42.251176346     0.1822538212649
          11.676557932    0.46828459437429
          3.5930506482    0.44575817336002
 s    1 1.00
         0.40245147363                   1
 s    1 1.00
         0.13090182668                   1
 p    3 1.00
          9.4680970621   0.056888332011037
          2.0103545142    0.31294059336471
         0.54771004707    0.76065016509135
 p    1 1.00
         0.15268613795                   1
 d    1 1.00
                   0.8                   1

22 0
 s    3 1.00
             13.010701   0.033485484812989
             1.9622572    0.23472187088125
            0.44453796    0.81377028525955
 s    1 1.00
            0.12194962                   1
 p    1 1.00
                   0.8                   1

23 0
 s    3 1.00
             13.010701   0.033485484812989
             1.9622572    0.23472187088125
            0.44453796    0.81377028525955
 s    1 1.00
            0.12194962                   1
 p    1 1.00
                   0.8                   1

24 0
 s    3 1.00
             13.010701   0.033485484812989
             1.9622572    0.23472187088125
            0.44453796    0.81377028525955
 s    1 1.00
            0.12194962                   1
 p    1 1.00
                   0.8                   1

[5d]
[7f]
[9g]

[MO]
 Sym= A
 Ene=               0
 Spin= Alpha
 Occup=    1.00000
   1    0.0007138831595024
   2    -0.0021286112296409
   3    0.0094737356903616
   4    -0.017033095053979
   5     0.011011350863312
   6    -0.000763610057344
   7    0.0017142031347899
   8    0.0013934907393384
   9    0.0023755970161074
  10    -0.0053020324293939
  11    -0.0043505508456155
  12    -0.003635067074041
  13     0.006281529712585
  14    0.0064676333877482
  15     0.010357711478897
  16     -0.60898844290856
  17      0.30142386708448
  18     -0.54687532359128
  19       0.1054884700077
  20    0.0021216546677981
  21      -0.1638791250089
  22      0.08290995980559
  23      -0.1474899339699
  24     0.027635908662667
  25    2.1685008992146e-05
  26    -0.00030024296395648
  27    -0.00010898254052946
  28    -0.00017667113277372
  29    -0.00029874703569974
  30    -0.00017194676386257
  31    -0.0003578123083623
  32    -0.00039939503780763
  33    -0.0027347556401354
  34    0.0054440961404359
  35    0.0056185725430163
  36    -0.017429681744349
  37     0.012136227742307
  38    -0.011292262452567
  39    -0.029515534337653
  40     0.020654536019274
  41    -0.018919391315623
  42    -0.045945655625734
  43     0.035417443310118
  44    -0.037067633043595
  45    0.0023904902832179
  46    0.00056005962274504
  47    -0.00030859755105911
  48    0.00016314035712651
  49    0.0022733437807626
  50    -0.0003513376533597
  51    -0.0024293869770882
  52    0.0052386281007437
  53    0.0053222239656418
  54     0.015435665662514
  55    0.0002122041175125
  56     0.017473445864802
  57     0.026076132035347
  58    0.00052834738055321
  59     0.029578338712742
  60     0.041411651630844
  61    -0.0040497079404849
  62     0.052007913642765
  63    -0.0010810508594213
  64    -0.00098246121243292
  65    -0.0024477075937595
  66    -0.00018720835156577
  67    -0.0015163367122469
  68     0.001503335496054
  69    -0.0042994737215229
  70     0.020850878334873
  71    -0.037992296452349
  72     0.014021351387032
  73    0.00058855266791778
  74    -0.002466310034306
  75    -0.001717982633178
  76    -0.001926769145956
  77    0.0080605032151794
  78    0.0056154645135069
  79    0.0031132565645663
  80    -0.011828793191104
  81    -0.0085341726702769
  82    0.00036165468461963
  83    0.0029310382724165
  84    -0.0035784280843828
  85     0.002799930642375
  86    -7.7794033021243e-05
  87    0.0014908611846871
  88    0.0048714484371017
  89    -0.00043809729513681
  90    -1.4936511636944e-06
  91    -0.0033630345076284
  92    -5.449029881675e-05
  93    0.00020041837373834
  94    0.00017787258710098
  95    -0.00035187490805307
  96    -2.7692394955287e-05
  97    0.00034394136599119
  98    -0.00010117738024358
  99    -0.00062856990273929
 100    -0.0041587750071267
 101    0.0068036397898341
 102     0.005484948582971
 103    0.0044995897921324
 104    -0.0074328920758101
 105    0.0017213628727392
 106    0.0079423582707307
 107    -0.013006979921893
 108    0.0026730721371486
 109    0.0081690679777056
 110    -0.019955137819782
 111    0.0071765853932124
 112     0.001469361695667
 113    0.0026062028926273
 114    -0.0013494179281835
 115    -0.0022147061508757
 116    0.0014130161597101
 117    -0.00088238332845028
 118    -0.0058011242782659
 119    0.0084815206033223
 120    0.0091855212824089
 121    -0.006106617670848
 122    -0.0018138280594991
 123    -0.0045543583400236
 124    -0.010516437433131
 125    -0.0035171042451058
 126    -0.0079884190224436
 127     -0.01590485441204
 128    -0.0010426439832237
 129    -0.010238403737137
 130    0.0010887644800463
 131    -0.00056544606890041
 132    -0.0035268421007776
 133    0.0025548537831606
 134    -0.0026686741946162
 135    -0.00020310161427294
 136    -0.0013642999564356
 137    0.0031886034417256
 138    -0.0021193418989992
 139    0.00060388319889573
 140    0.0012143340190357
 141    0.0025988224593311
 142    0.0014190706028654
 143    0.0021721719769701
 144    0.0044608984980539
 145    -0.00023374238601652
 146    0.0036355589891964
 147    0.0082481408456592
 148    -9.4805537277953e-06
 149    -0.00022198863504397
 150    -0.00027322719325816
 151    0.00023611956614107
 152    -0.00020956789929425
 153    -0.00022543893321537
 154    -0.0015144765811421
 155    0.0034422816400527
 156    -0.0018405297884641
 157    -0.0014242242968937
 158    0.0026646466687173
 159    -6.6372392550817e-05
 160    -0.0027867310292262
 161    0.0045386670552647
 162    -9.3532078253995e-05
 163    -0.0027322404114519
 164     0.008821217025558
 165    -0.00010299449812622
 166    6.7834822327866e-05
 167    0.00019339760443347
 168    -0.00019513089347986
 169    1.8885814034002e-05
 170    0.00038614175386799
 171    0.0033870575366871
 172    -0.0079350675770756
 173    -0.0045310334723584
 174     0.007147066525004
 175     0.012312949934495
 176    0.0097685267024328
 177    0.0065866889169735
 178    0.0054137178092711
 179    0.0083882583150751
 180    -0.00039368222595398
 181    -0.00060213923958695
 182    -0.00072611661403402
 183    0.00012039523542718
 184    -0.00047690795431681
 185    0.0036452951152448
 186    0.0019051586784697
 187    -8.6914082213318e-05
 188    0.00045289198526889
 189    0.00030718917739502
 190    0.0041941377124723
 191    0.0031485262535646
 192    0.00037262621071827
 193    9.1243827216946e-05
 194    5.663769906658e-05
 195    -0.00061550771877061
 196     -0.00227919781502
 197    8.9554186810062e-05
 198    -0.00013358508195199
 199    6.4056653702026e-05
 200    0.0031193506831301
 201    -0.006648688872684
 202    -0.0073687827473739
 203     -0.01376055269714
 204    0.0031721293979995
 205    0.0032628368579399
 206    -0.009721812599027
 207    0.00042510886153055
 208    0.00047385828975718
 209    0.00080407552431838
 210    -0.00034365977964008
 211    0.00019167132521666
 212    -0.0008137446621756
 213    -5.7415589544414e-05
 214    -0.00015763700251832
 215    -0.002074801023335
 216    -0.00028156998353071
 217    4.6023495351078e-05
 218    0.00011971865916128
 219    0.0055080517158337
 220    0.0041809966157582
 221    -0.0002571665430981
 222    1.5159820388131e-05
 223    -0.00014329084069249
 224    0.00073821269273962
 225    0.0039975812849276
 226    -3.007696379598e-05
 227    -2.4096681116258e-05
 228    -9.0034710950872e-05
 229    -0.00064938675237657
 230    0.00078073833500912
 231    0.0099195735853169
 232    -0.00044352385150377
 233    0.0014543807738196
 234    0.0011915387687255
 235    -0.0023041802352704
 236    0.00077520174227567
 237    0.0015310532519237
 238    -2.9080930667262e-05
 239    -2.3153571929503e-05
 240    6.7171159986358e-05
 241    -1.9631128247854e-06
 242    0.0001354808063502
 243    -0.00027996546737537
 244    -0.0032253130957542
 245    4.5205227247706e-05
 246    9.634876606273e-05
 247    -2.9328886074243e-05
 248    -0.00053803269446584
 249    -0.0020386535256285
 250    -3.4890182689127e-05
 251    -5.6381254281731e-05
 252    3.3038053884079e-05
 253    0.00070131716719509
 254    -0.0082205157929581
 255    -0.00011184757606308
 256    -0.00024570055415642
 257    2.1842974588441e-05
 258    -0.00057004082829898
 259    0.00065924477094399
 260    0.0092639982973097
 261    -0.00036920244014474
 262    0.0014346261723301
 263    0.00075353780586244
 264    0.0012090607913884
 265    0.0018424845856678
 266    0.00022261591274824
 267    -5.4476145816326e-05
 268    -0.00013760428070246
 269     2.76474091582e-05
 270    4.6315026487516e-05
 271    -4.1339071727812e-05
 272    -0.00040846014064063
 273    -0.0019210977774551
 274    4.6051173277652e-05
 275    1.2774217937571e-05
 276    -6.4260811037806e-05
 277    0.00055039325945959
 278    -0.0073205653176015
 279    0.00015539335189829
 280    -6.8196421883016e-06
 281    -0.00015870351983248
 282    -0.00026285524379855
 283    -0.0032400252031544
 284    -5.8490034977765e-05
 285    -6.1800507696749e-06
 286    9.7303238971223e-05
 Sym= A
 Ene=               1
 Spin= Alpha
 Occup=    1.00000
   1    -0.00057686006405513
   2    0.0017310199334376
   3    -0.0076107191704343
   4     0.014341045856816
   5    -0.018759388513239
   6    -0.00074671982664481
   7    9.4634462293213e-05
   8    -7.4613029769257e-05
   9    0.0023756096759461
  10    -0.00037957300309034
  11    0.0001487239298425
  12    -0.0051135643699333
  13    0.0053687583077654
  14    0.0030903666373369
  15    -0.020567375888261
  16     -0.37847563912038
  17     -0.64814268852764
  18      0.14602135825916
  19       0.4316086616331
  20    -0.0050208113669146
  21    -0.099453936977433
  22     -0.17324014573836
  23     0.040210018410522
  24      0.11441835960636
  25    0.00022247361877057
  26    -0.00023004427975067
  27    -0.00011994776798163
  28    0.00028404217132095
  29    -0.00014753780305484
  30    -0.00024691852451962
  31    8.6841300209865e-05
  32    0.00057043710418391
  33    0.0038647640989408
  34    -0.0073072776147958
  35    -0.0057504672474189
  36     0.011193344673337
  37    0.0054138145642249
  38     -0.02201226934245
  39     0.019013613228951
  40    0.0088303953807687
  41    -0.037168945756989
  42     0.027109091401642
  43     0.018906127876131
  44    -0.064275593705003
  45    0.0012014177833658
  46    -0.0023229953857722
  47    0.0020028147042995
  48    0.0010574030868114
  49    -0.00075273190558274
  50    0.00070786543680917
  51    0.0047336596348299
  52    -0.0080874839660774
  53    -0.006569046141068
  54    -0.0060764545934367
  55    -0.020597224978099
  56    0.0075362932295882
  57    -0.010312375285281
  58    -0.034952697267844
  59     0.012485616387635
  60    -0.013645275034491
  61    -0.056745119421668
  62     0.026049038193827
  63    -0.0021129720088231
  64    0.00031895962504908
  65    0.00078571505299022
  66    -0.002425374589292
  67    0.0012089754499801
  68    -0.0016557502198206
  69    0.0047237248270185
  70    -0.023016506261416
  71     0.039099743849785
  72    -0.0034216624076696
  73    -0.00065445319313173
  74    0.0029063607296158
  75    0.0016962583557416
  76    0.0021420451277652
  77    -0.0095110977718851
  78    -0.0055663982896488
  79    -0.0032038009818616
  80     0.016029482608303
  81    0.0090870621550043
  82    -0.0019507926826367
  83    0.00014480355371165
  84    0.0045709259110888
  85    -0.0010713753273782
  86    -0.0016903902134861
  87    -0.0036756980595912
  88    0.0017485405034368
  89    0.0030396993658211
  90    0.0037655553436729
  91    1.1950031764791e-05
  92    1.995221496555e-06
  93    0.00020301465538992
  94    -0.00011297888055563
  95    0.00027412850474456
  96    0.00022998918889638
  97    -0.00018716657280946
  98    0.00044674069509236
  99    -0.00045612158979181
 100    -0.0029197634893229
 101    0.0025532954585489
 102    0.0085541975545855
 103    0.0068619331505888
 104      0.01968791875862
 105    -0.0036541228743734
 106     0.011652736558247
 107     0.033955067028894
 108    -0.0062689610021329
 109     0.019422826822311
 110     0.058181310599766
 111    -0.010771147624217
 112    0.00063707500616753
 113    0.0012808679241081
 114      0.00180415369074
 115    -0.0013110389599367
 116    0.00028680028889136
 117    -7.9995103733713e-05
 118    -0.00045584468517393
 119    -0.0010034683991816
 120    0.0037169863177106
 121    -0.012738088679125
 122    -0.0035438195685499
 123     0.014029855368425
 124    -0.021893746847697
 125    -0.0058773806061702
 126     0.024290201306332
 127     -0.03813908697312
 128    -0.011758626753347
 129     0.040611100233202
 130    -0.00044859180354562
 131    -0.00048478476511108
 132    0.0014224440284459
 133    0.00015355935815818
 134    -0.0010826749504936
 135    0.00048398430199499
 136    0.0031952394034625
 137    -0.0050144814043292
 138    -0.0050516833135711
 139    0.00031456779420548
 140    -0.00081652856379734
 141    -0.0035833318635967
 142    0.0009804146805613
 143    -0.0014666192640431
 144    -0.0063833437143834
 145    -0.0023385387528123
 146    -0.0025626329182187
 147    -0.010408200801743
 148    -0.00015020576788235
 149    -0.00076274554226171
 150    0.00036839193638066
 151    0.00036614744730594
 152    -0.0003189493441533
 153    0.00040677617678037
 154    0.0026805377410201
 155    -0.0042305892644902
 156    -0.003938573714361
 157    0.00051221314954503
 158    -0.0032670371726582
 159    0.00071409079105779
 160    0.00057059958217282
 161    -0.0058986911464708
 162    0.0012179960140423
 163    0.0040833582036901
 164    -0.0085873058469523
 165    0.0021936957334823
 166    -0.00037343799646392
 167    7.5936836029439e-05
 168    0.0002829392731055
 169    -0.00022221094094913
 170    0.00062806551573038
 171    0.00016506432485027
 172    0.0005777403958019
 173    -0.010085444634349
 174    0.00063321750362474
 175    -0.00020454442820628
 176    -0.0052186163746209
 177    -0.0015993755529367
 178    0.0018894880061629
 179    -0.0065027683410753
 180    -0.00095436376720431
 181    7.5755981329121e-05
 182    -0.00024359892799607
 183    0.0004967374478261
 184    0.00098064117486828
 185    0.0060492255992726
 186    0.0069674671493376
 187    -5.0302525869332e-05
 188    7.4594465063129e-05
 189    0.00021259476916749
 190    -0.0033394854717417
 191    -0.0012700288096338
 192    -0.00010507705546723
 193    2.1310259623952e-05
 194    -0.00020424885146292
 195    -0.0031422227314213
 196    0.0085932901276632
 197    9.0015979573231e-05
 198    -0.00021085240790977
 199    0.00028965355664339
 200    0.0015317707079986
 201    -0.003252399546017
 202    -0.0054260971612103
 203    -0.0054991482295964
 204    -0.0036093388208087
 205    0.0031555338251706
 206    -0.0041565834982493
 207    -0.0050184018740977
 208    0.0020855255472911
 209    0.00013474371542318
 210    -0.0003283756897837
 211    0.00048431110976811
 212    0.00030588577078735
 213    0.0014682442541776
 214    0.0058747924064775
 215    0.0024455789306873
 216    -0.00030417353143626
 217    0.00032671449385653
 218    0.00036218728419518
 219     0.001631209461009
 220    0.0022750937932629
 221    -6.9961433533732e-05
 222    -0.00018765343923864
 223    -3.1808472345883e-06
 224    -0.0059545626050596
 225    0.0033618966711262
 226    -1.5282528349932e-05
 227    0.00033300758636801
 228    -0.00041140970160333
 229    -0.00059014193301483
 230    0.00055565197874969
 231    0.0081952984706632
 232    0.0012922421448067
 233    0.0015037570817525