[Molden Format]
made by pyscf v[2.2.1]
[Atoms] (AU)
Fe   1   26    10.35569916261654     2.17318504324982   -15.17450078025744
S   2   16     7.65339080448850    -1.15273293598469   -16.53510358994429
S   3   16    14.15404867299231     0.79368497231733   -17.08312416606816
Fe   4   26    11.41394579237297    -2.30546587196938   -18.19806257956155
S   5   16    10.33680190137089     2.36215765570633   -10.54467177507304
S   6   16     8.74943195673624     6.19830168857340   -16.57289811243559
S   7   16    10.86592521624911    -2.83458918684759   -22.77119980100900
S   8   16    12.96352121451632    -6.44396608476686   -16.74297346364645
C   9   6    10.41239094635349     8.40928125431453   -14.19184319548361
H   10   1    12.26432254842725     9.12737718164925   -14.96663090655529
H   11   1     9.20296622663185    10.07224024393178   -13.70051440309670
H   12   1    10.80923343251215     7.25654831832984   -12.45329516088376
C   13   6     6.80301404843422     3.21253441176060   -10.46908273009044
H   14   1     5.68807563494084     1.51178089965205   -10.99820604496866
H   15   1     6.19830168857340     3.89283581660403    -8.54156208303408
H   16   1     6.46286334601251     4.68652078892135   -11.92417184600554
C   17   6     9.84547310898397    -7.97464424566456   -17.87680913838549
H   18   1     9.63760323528181    -7.57780175950590   -19.93661061416140
H   19   1     9.84547310898397   -10.05334298268613   -17.49886391347247
H   20   1     8.25810316434932    -7.02978118338203   -16.87525429236600
C   21   6    14.41861033043142    -3.49599333044536   -23.13024776467636
H   22   1    14.92883638406399    -3.89283581660403   -25.15225471796098
H   23   1    15.49575422143351    -1.81413707958246   -22.41215183734163
H   24   1    14.90993912281834    -5.14005505881697   -21.90192578370907
[GTO]
1 0
 s    6 1.00
          60923.640643  0.0017552243692958
          9147.8893982   0.013449023284001
          2081.3505927   0.066678874640978
          587.55977067    0.23176348548844
           191.0904399    0.46945550248188
          65.732730112     0.3596824938678
 s    3 1.00
          127.25891928   -0.10723431835929
           14.83091301    0.62971616328466
          6.0653307408    0.44472317896179
 s    3 1.00
           10.44994371   -0.21694289195548
          1.7245228003    0.69457867408393
         0.71772177325    0.43298308896347
 s    1 1.00
        0.091449828308                   1
 s    1 1.00
        0.033706691021                   1
 p    5 1.00
          773.43750995  0.0091440529992506
          182.15149714   0.067887577136571
          57.547272758    0.26167978878504
          20.614988935    0.51088040113251
           7.634855789    0.33235475570224
 p    3 1.00
           3.871932799    0.33193859098144
          1.4924724132     0.5553666555499
         0.56061284958    0.23106034201617
 p    1 1.00
              0.134915                   1
 d    4 1.00
          38.968133419   0.033335938558743
          10.800067078    0.17766212505983
          3.6136457999      0.441281781625
          1.2129967888    0.57089200490673
 d    1 1.00
          0.3652439317                   1
 f    1 1.00
                 1.598                   1

2 0
 s    5 1.00
           9184.930301  -0.0054729466134731
          1381.5105503  -0.040954402155135
           313.8714758   -0.18475828956188
          88.053870623   -0.47567280643953
          27.039914905   -0.43495153584169
 s    3 1.00
          45.648731303  -0.091904045808942
          4.9664522326    0.55698777214497
          2.0116242047     0.5111546829846
 s    1 1.00
         0.35661077013                   1
 s    1 1.00
         0.13507221477                   1
 p    5 1.00
          261.98233439  -0.009183054659266
          61.306894736   -0.06590222652599
          19.103729887   -0.24587784518735
          6.6567720378    -0.4823147107602
          2.3959635161   -0.38956314351423
 p    1 1.00
         0.61776161679                   1
 p    1 1.00
         0.16993376871                   1
 d    1 1.00
                  0.55                   1

3 0
 s    5 1.00
           9184.930301  -0.0054729466134731
          1381.5105503  -0.040954402155135
           313.8714758   -0.18475828956188
          88.053870623   -0.47567280643953
          27.039914905   -0.43495153584169
 s    3 1.00
          45.648731303  -0.091904045808942
          4.9664522326    0.55698777214497
          2.0116242047     0.5111546829846
 s    1 1.00
         0.35661077013                   1
 s    1 1.00
         0.13507221477                   1
 p    5 1.00
          261.98233439  -0.009183054659266
          61.306894736   -0.06590222652599
          19.103729887   -0.24587784518735
          6.6567720378    -0.4823147107602
          2.3959635161   -0.38956314351423
 p    1 1.00
         0.61776161679                   1
 p    1 1.00
         0.16993376871                   1
 d    1 1.00
                  0.55                   1

4 0
 s    6 1.00
          60923.640643  0.0017552243692958
          9147.8893982   0.013449023284001
          2081.3505927   0.066678874640978
          587.55977067    0.23176348548844
           191.0904399    0.46945550248188
          65.732730112     0.3596824938678
 s    3 1.00
          127.25891928   -0.10723431835929
           14.83091301    0.62971616328466
          6.0653307408    0.44472317896179
 s    3 1.00
           10.44994371   -0.21694289195548
          1.7245228003    0.69457867408393
         0.71772177325    0.43298308896347
 s    1 1.00
        0.091449828308                   1
 s    1 1.00
        0.033706691021                   1
 p    5 1.00
          773.43750995  0.0091440529992506
          182.15149714   0.067887577136571
          57.547272758    0.26167978878504
          20.614988935    0.51088040113251
           7.634855789    0.33235475570224
 p    3 1.00
           3.871932799    0.33193859098144
          1.4924724132     0.5553666555499
         0.56061284958    0.23106034201617
 p    1 1.00
              0.134915                   1
 d    4 1.00
          38.968133419   0.033335938558743
          10.800067078    0.17766212505983
          3.6136457999      0.441281781625
          1.2129967888    0.57089200490673
 d    1 1.00
          0.3652439317                   1
 f    1 1.00
                 1.598                   1

5 0
 s    5 1.00
           9184.930301  -0.0054729466134731
          1381.5105503  -0.040954402155135
           313.8714758   -0.18475828956188
          88.053870623   -0.47567280643953
          27.039914905   -0.43495153584169
 s    3 1.00
          45.648731303  -0.091904045808942
          4.9664522326    0.55698777214497
          2.0116242047     0.5111546829846
 s    1 1.00
         0.35661077013                   1
 s    1 1.00
         0.13507221477                   1
 p    5 1.00
          261.98233439  -0.009183054659266
          61.306894736   -0.06590222652599
          19.103729887   -0.24587784518735
          6.6567720378    -0.4823147107602
          2.3959635161   -0.38956314351423
 p    1 1.00
         0.61776161679                   1
 p    1 1.00
         0.16993376871                   1
 d    1 1.00
                  0.55                   1

6 0
 s    5 1.00
           9184.930301  -0.0054729466134731
          1381.5105503  -0.040954402155135
           313.8714758   -0.18475828956188
          88.053870623   -0.47567280643953
          27.039914905   -0.43495153584169
 s    3 1.00
          45.648731303  -0.091904045808942
          4.9664522326    0.55698777214497
          2.0116242047     0.5111546829846
 s    1 1.00
         0.35661077013                   1
 s    1 1.00
         0.13507221477                   1
 p    5 1.00
          261.98233439  -0.009183054659266
          61.306894736   -0.06590222652599
          19.103729887   -0.24587784518735
          6.6567720378    -0.4823147107602
          2.3959635161   -0.38956314351423
 p    1 1.00
         0.61776161679                   1
 p    1 1.00
         0.16993376871                   1
 d    1 1.00
                  0.55                   1

7 0
 s    5 1.00
           9184.930301  -0.0054729466134731
          1381.5105503  -0.040954402155135
           313.8714758   -0.18475828956188
          88.053870623   -0.47567280643953
          27.039914905   -0.43495153584169
 s    3 1.00
          45.648731303  -0.091904045808942
          4.9664522326    0.55698777214497
          2.0116242047     0.5111546829846
 s    1 1.00
         0.35661077013                   1
 s    1 1.00
         0.13507221477                   1
 p    5 1.00
          261.98233439  -0.009183054659266
          61.306894736   -0.06590222652599
          19.103729887   -0.24587784518735
          6.6567720378    -0.4823147107602
          2.3959635161   -0.38956314351423
 p    1 1.00
         0.61776161679                   1
 p    1 1.00
         0.16993376871                   1
 d    1 1.00
                  0.55                   1

8 0
 s    5 1.00
           9184.930301  -0.0054729466134731
          1381.5105503  -0.040954402155135
           313.8714758   -0.18475828956188
          88.053870623   -0.47567280643953
          27.039914905   -0.43495153584169
 s    3 1.00
          45.648731303  -0.091904045808942
          4.9664522326    0.55698777214497
          2.0116242047     0.5111546829846
 s    1 1.00
         0.35661077013                   1
 s    1 1.00
         0.13507221477                   1
 p    5 1.00
          261.98233439  -0.009183054659266
          61.306894736   -0.06590222652599
          19.103729887   -0.24587784518735
          6.6567720378    -0.4823147107602
          2.3959635161   -0.38956314351423
 p    1 1.00
         0.61776161679                   1
 p    1 1.00
         0.16993376871                   1
 d    1 1.00
                  0.55                   1

9 0
 s    5 1.00
          1238.4016938  0.0055173650481097
          186.29004992   0.041088828555946
          42.251176346     0.1822538212649
          11.676557932    0.46828459437429
          3.5930506482    0.44575817336002
 s    1 1.00
         0.40245147363                   1
 s    1 1.00
         0.13090182668                   1
 p    3 1.00
          9.4680970621   0.056888332011037
          2.0103545142    0.31294059336471
         0.54771004707    0.76065016509135
 p    1 1.00
         0.15268613795                   1
 d    1 1.00
                   0.8                   1

10 0
 s    3 1.00
             13.010701   0.033485484812989
             1.9622572    0.23472187088125
            0.44453796    0.81377028525955
 s    1 1.00
            0.12194962                   1
 p    1 1.00
                   0.8                   1

11 0
 s    3 1.00
             13.010701   0.033485484812989
             1.9622572    0.23472187088125
            0.44453796    0.81377028525955
 s    1 1.00
            0.12194962                   1
 p    1 1.00
                   0.8                   1

12 0
 s    3 1.00
             13.010701   0.033485484812989
             1.9622572    0.23472187088125
            0.44453796    0.81377028525955
 s    1 1.00
            0.12194962                   1
 p    1 1.00
                   0.8                   1

13 0
 s    5 1.00
          1238.4016938  0.0055173650481097
          186.29004992   0.041088828555946
          42.251176346     0.1822538212649
          11.676557932    0.46828459437429
          3.5930506482    0.44575817336002
 s    1 1.00
         0.40245147363                   1
 s    1 1.00
         0.13090182668                   1
 p    3 1.00
          9.4680970621   0.056888332011037
          2.0103545142    0.31294059336471
         0.54771004707    0.76065016509135
 p    1 1.00
         0.15268613795                   1
 d    1 1.00
                   0.8                   1

14 0
 s    3 1.00
             13.010701   0.033485484812989
             1.9622572    0.23472187088125
            0.44453796    0.81377028525955
 s    1 1.00
            0.12194962                   1
 p    1 1.00
                   0.8                   1

15 0
 s    3 1.00
             13.010701   0.033485484812989
             1.9622572    0.23472187088125
            0.44453796    0.81377028525955
 s    1 1.00
            0.12194962                   1
 p    1 1.00
                   0.8                   1

16 0
 s    3 1.00
             13.010701   0.033485484812989
             1.9622572    0.23472187088125
            0.44453796    0.81377028525955
 s    1 1.00
            0.12194962                   1
 p    1 1.00
                   0.8                   1

17 0
 s    5 1.00
          1238.4016938  0.0055173650481097
          186.29004992   0.041088828555946
          42.251176346     0.1822538212649
          11.676557932    0.46828459437429
          3.5930506482    0.44575817336002
 s    1 1.00
         0.40245147363                   1
 s    1 1.00
         0.13090182668                   1
 p    3 1.00
          9.4680970621   0.056888332011037
          2.0103545142    0.31294059336471
         0.54771004707    0.76065016509135
 p    1 1.00
         0.15268613795                   1
 d    1 1.00
                   0.8                   1

18 0
 s    3 1.00
             13.010701   0.033485484812989
             1.9622572    0.23472187088125
            0.44453796    0.81377028525955
 s    1 1.00
            0.12194962                   1
 p    1 1.00
                   0.8                   1

19 0
 s    3 1.00
             13.010701   0.033485484812989
             1.9622572    0.23472187088125
            0.44453796    0.81377028525955
 s    1 1.00
            0.12194962                   1
 p    1 1.00
                   0.8                   1

20 0
 s    3 1.00
             13.010701   0.033485484812989
             1.9622572    0.23472187088125
            0.44453796    0.81377028525955
 s    1 1.00
            0.12194962                   1
 p    1 1.00
                   0.8                   1

21 0
 s    5 1.00
          1238.4016938  0.0055173650481097
          186.29004992   0.041088828555946
          42.251176346     0.1822538212649
          11.676557932    0.46828459437429
          3.5930506482    0.44575817336002
 s    1 1.00
         0.40245147363                   1
 s    1 1.00
         0.13090182668                   1
 p    3 1.00
          9.4680970621   0.056888332011037
          2.0103545142    0.31294059336471
         0.54771004707    0.76065016509135
 p    1 1.00
         0.15268613795                   1
 d    1 1.00
                   0.8                   1

22 0
 s    3 1.00
             13.010701   0.033485484812989
             1.9622572    0.23472187088125
            0.44453796    0.81377028525955
 s    1 1.00
            0.12194962                   1
 p    1 1.00
                   0.8                   1

23 0
 s    3 1.00
             13.010701   0.033485484812989
             1.9622572    0.23472187088125
            0.44453796    0.81377028525955
 s    1 1.00
            0.12194962                   1
 p    1 1.00
                   0.8                   1

24 0
 s    3 1.00
             13.010701   0.033485484812989
             1.9622572    0.23472187088125
            0.44453796    0.81377028525955
 s    1 1.00
            0.12194962                   1
 p    1 1.00
                   0.8                   1

[5d]
[7f]
[9g]

[MO]
 Sym= A
 Ene=               0
 Spin= Alpha
 Occup=    1.00000
   1    0.00071550046829866
   2    -0.0021328992505924
   3    0.0094976052576534
   4    -0.017072067147432
   5     0.010903103663514
   6    -0.00076308947748964
   7    0.0017106491820248
   8    0.0013915749763237
   9    0.0023739687866751
  10    -0.0052909649141058
  11    -0.0043446072527104
  12    -0.0036336784946353
  13    0.0062769224395675
  14    0.0064669514191675
  15     0.010369547298917
  16      -0.6090129558732
  17      0.30142922521215
  18     -0.54691436551589
  19      0.10548322942606
  20    0.0021335817051244
  21       -0.163896806967
  22     0.082914815385353
  23     -0.14752498654641
  24     0.027628870057678
  25    2.1884091356767e-05
  26    -0.00029955975418763
  27    -0.00010926023604784
  28    -0.00017576137695857
  29    -0.00029793378644992
  30    -0.0001722201869545
  31    -0.00035668588264701
  32    -0.00040190824949498
  33    -0.002750685763874
  34    0.0054616456310149
  35     0.005606374315141
  36    -0.017518597989514
  37     0.012150675783659
  38     -0.01134498889859
  39    -0.029346507541289
  40     0.020491269433483
  41    -0.018909624190829
  42    -0.045713691339436
  43     0.035156570486973
  44    -0.037030142446344
  45    0.0023834292403693
  46    0.00055815104010756
  47    -0.00031102107649143
  48    0.00018480027476853
  49    0.0022647818510917
  50    -0.00035353032723845
  51    -0.0024432506422279
  52    0.0052534652354091
  53    0.0053124375784683
  54     0.015527374528173
  55    0.0002089304335218
  56     0.017519185855979
  57      0.02597928931196
  58    0.00043056256075014
  59     0.029415858688913
  60     0.041287460267247
  61    -0.0041760772463044
  62     0.051745719146451
  63    -0.0010895655410482
  64    -0.0009692388238984
  65    -0.0024479127348644
  66    -0.00017870056909074
  67    -0.0015011547821103
  68    0.0014951942145448
  69    -0.0042765561645828
  70     0.020736424549101
  71    -0.037782062894131
  72     0.014017434114796
  73    0.0005799386115596
  74    -0.0024385514873572
  75    -0.0016979992353463
  76    -0.0018992188756024
  77    0.0079714398027343
  78    0.0055513851942309
  79    0.0030642236069339
  80    -0.011668138728588
  81    -0.0084172647527086
  82    0.0010044685485204
  83    0.0033116943841558
  84    -0.0038505846699374
  85    0.0021157120187562
  86    -0.00059649164695804
  87    0.0016467528185373
  88    0.0049487695865593
  89    -0.00049551318243833
  90    -0.00017874149058587
  91    -0.0034856440374177
  92    -5.4796532783627e-05
  93    0.00019975632326159
  94    0.00017711930692956
  95    -0.00035021345122248
  96    -2.7593491430902e-05
  97    0.0003420526583928
  98    -0.00010030226286888
  99    -0.00062949606387028
 100    -0.0041645550523947
 101    0.0068016065366626
 102    0.0055364542625318
 103    0.0045009504200424
 104    -0.0074316338614902
 105    0.0017155732041492
 106    0.0079457333907559
 107    -0.013004136924916
 108    0.0026637832886308
 109    0.0081657651716745
 110    -0.019953773630451
 111    0.0071485949138896
 112    0.0014699327017657
 113    0.0026079617787345
 114    -0.0013500627966549
 115    -0.0022156125075652
 116    0.0014132904139021
 117    -0.00088383399607756
 118    -0.0058104413716341
 119    0.0084867217201767
 120    0.0092377789543763
 121    -0.0061060354449156
 122    -0.0018205021174646
 123    -0.0045511786819423
 124    -0.010516806432862
 125    -0.0035292148862134
 126    -0.0079830562307626
 127    -0.015893141153571
 128    -0.0010660083331983
 129    -0.010223868377516
 130    0.0010899673031609
 131    -0.00056537035144147
 132    -0.0035285550152101
 133    0.0025560216214096
 134    -0.0026711677053207
 135    -0.00019782808434181
 136    -0.0013299806266187
 137    0.0031412094865031
 138    -0.0021616904231331
 139    0.00060231633246163
 140    0.0011889271303569
 141    0.0025513945859929
 142     0.001415619549226
 143    0.0021288400795277
 144    0.0043797457003473
 145    -0.00024491858793309
 146    0.0035565637396922
 147    0.0081075784452682
 148    -1.3285658869801e-05
 149    -0.00022465813246646
 150    -0.00027050340427706
 151    0.0002367064888834
 152    -0.00021075480123334
 153    -0.00022017250795771
 154    -0.001480206887253
 155    0.0033947647683156
 156    -0.0018819531823368
 157    -0.0014054843307926
 158    0.0026130744403741
 159    -7.0715293339123e-05
 160    -0.0027541353929805
 161    0.0044506823282024
 162    -0.00010075174225114
 163    -0.0026687897907413
 164    0.0086682329730959
 165    -0.00011803931834512
 166    6.6978471191102e-05
 167    0.00019274732107031
 168    -0.00019044222837744
 169    1.956121745439e-05
 170    0.00038826575996314
 171     0.003388528561372
 172    -0.0079374375639555
 173    -0.0045560385893307
 174    0.0071513516358623
 175     0.012318120742286
 176    0.0097720779701232
 177    0.0065897784170732
 178    0.0054140901243097
 179    0.0083935034462203
 180    -0.00039410217004586
 181    -0.0006024779066108
 182    -0.00072627828462527
 183    0.00012020411514437
 184    -0.00047675854265556
 185    0.0036487646606913
 186    0.0019177141236493
 187    -8.7334203687426e-05
 188    0.00045314732362219
 189    0.00030740812151489
 190     0.004196325716788
 191    0.0031573904370343
 192    0.00037309749867501
 193    9.1308174268337e-05
 194    5.6549335426514e-05
 195    -0.00061795296336334
 196    -0.0022622260141355
 197    8.9475755645355e-05
 198    -0.00013393741302472
 199    6.3675112994269e-05
 200    0.0031186550065538
 201    -0.0066454204446381
 202    -0.0073856137698363
 203    -0.013767372937686
 204    0.0031693815184754
 205    0.0032597848870361
 206    -0.0097290317104068
 207    0.0004249219390754
 208    0.00047455441079724
 209    0.00080395452197418
 210    -0.00034400386637851
 211    0.0001915947455424
 212    -0.00081388829413374
 213    -5.7042852689875e-05
 214    -0.00015267847287326
 215      -0.0020655427216
 216    -0.0002814041582589
 217    4.6590224042762e-05
 218    0.00012064549426745
 219    0.0055069918750555
 220    0.0041835852474624
 221    -0.00025746531684688
 222    1.4970216021857e-05
 223    -0.00014338692938882
 224    0.00073960095508701
 225    0.0040122907692593
 226    -2.9587512051651e-05
 227    -2.4417685766596e-05
 228    -9.0170779523373e-05
 229    -0.00065014467083732
 230    0.00078114489090143
 231    0.0099045974201399
 232    -0.00043364122636072
 233    0.0014616080282622
 234    0.0011902123588543
 235    -0.0022817043102491
 236    0.00078808132547606
 237    0.0015310668817637
 238    -2.885560666859e-05
 239    -2.3024578630707e-05
 240    6.7164858377723e-05
 241    1.317221618527e-06
 242    0.00013330934431847
 243    -0.00027847951454837
 244    -0.0032102063656022
 245    4.4905362326304e-05
 246    9.5530140062009e-05
 247    -2.8842296215873e-05
 248    -0.00055249093720837
 249    -0.0020444539879587
 250    -3.4045970280838e-05
 251    -5.6130562243668e-05
 252    3.3175685658706e-05
 253    0.00071106204222658
 254    -0.0081902839155486
 255    -0.00011222161621368
 256    -0.00024467899447394
 257    2.1644988407022e-05
 258    -0.00057202639598699
 259    0.00066190680116396
 260    0.0092539869325832
 261    -0.00038145635529533
 262    0.0014348530702706
 263    0.00076023764258492
 264    0.0011834708108116
 265    0.0018432222932053
 266    0.00023260378841777
 267    -5.6454130201376e-05
 268    -0.00013425049645399
 269    2.7107926069193e-05
 270    4.6944251058428e-05
 271    -3.9816063777554e-05
 272    -0.00042480935865862
 273    -0.0019287070024514
 274    4.5142629422803e-05
 275    1.280780577526e-05
 276    -6.4160176786467e-05
 277    0.00056053799483877
 278    -0.0072926086721458
 279    0.00015551041245819
 280    -6.7710122803468e-06
 281    -0.00015804627538268
 282    -0.00026079458502573
 283    -0.0032241704885214
 284    -5.8069815147971e-05
 285    -5.9576566425129e-06
 286    9.6302488644573e-05
 Sym= A
 Ene=               1
 Spin= Alpha
 Occup=    1.00000
   1    -0.0005789532460855
   2     0.001736610375772
   3    -0.0076414288038298
   4      0.01439491699261
   5    -0.018634924768925
   6    -0.00074706476134761
   7    9.7826940489978e-05
   8    -7.1698700242372e-05
   9    0.0023766240954818
  10    -0.00038937765837423
  11    0.0001396232983863
  12    -0.0051126757471339
  13    0.0053646824034424
  14    0.0030961625365224
  15    -0.020585524119462
  16     -0.37849994715424
  17     -0.64816649992451
  18      0.14604658237573
  19      0.43164069531568
  20    -0.0050365704889355
  21    -0.099472875173424
  22     -0.17325860207611
  23     0.040233342614524
  24      0.11444566268664
  25    0.0002220159615779
  26    -0.00022947698388429
  27    -0.00011924099967415
  28    0.00028275580377146
  29    -0.00014772437886006
  30    -0.00024590185950539
  31    8.6336896650787e-05
  32    0.00057307047974452
  33    0.0038813679986598
  34    -0.0073249348742049
  35    -0.0057332811091154
  36     0.011265317006893
  37    0.0054542283970267
  38    -0.022085478757885
  39     0.018871604740535
  40    0.0088859157386271
  41    -0.036949861663928
  42     0.026927954085544
  43     0.018980010589614
  44    -0.063936719389034
  45    0.0012072381804164
  46    -0.0023040855081892
  47    0.0020107102466374
  48    0.0010392683135536
  49    -0.00075027915237812
  50    0.00071025522249285
  51    0.0047487823180531
  52    -0.0081039160358599
  53    -0.0065536845749768
  54    -0.0061373349580489
  55    -0.020663262522938
  56    0.0075717881937073
  57    -0.010257487722092
  58    -0.034727336307439
  59      0.01249828613126
  60    -0.013592027000919
  61    -0.056410719003548
  62     0.026052723580449
  63    -0.0021058009999585
  64    0.00031524935245127
  65    0.00079000394267979
  66    -0.0024275599072295
  67    0.0011847052221608
  68    -0.0016461127398668
  69    0.0046965388766379
  70    -0.022881258761822
  71     0.038868565029397
  72    -0.0034524330757536
  73    -0.00064495502819622
  74    0.0028748161467351
  75     0.001674425676997
  76    0.0021115070252034
  77    -0.0094097735557312
  78    -0.0054964280152098
  79    -0.0031488535145976
  80      0.01584501608939
  81     0.008964599344001
  82    -0.0027433098887398
  83    -0.0001261726619046
  84    0.0050420953263395
  85    -0.00038629744510171
  86    -0.001254959801086
  87    -0.0038605081823738
  88    0.0016782893045766
  89    0.0031417674388745
  90    0.0039285436495298
  91    0.00012480724208835
  92    2.568789160209e-06
  93    0.00020207308711544
  94    -0.00011231862059335
  95    0.0002727598173893
  96    0.00022919466069016
  97    -0.00018567021538047
  98    0.0004445060199835
  99    -0.00045492686248045
 100    -0.0029121644500631
 101    0.0025509414512462
 102    0.0085043212689399
 103    0.0068619289096171
 104     0.019689326159051
 105    -0.0036457137341485
 106     0.011654024990335
 107     0.033957368251097
 108    -0.0062553772975178
 109     0.019417818561188
 110     0.058186741131187
 111     -0.01073128464099
 112    0.00063660858723448
 113    0.0012814294109298
 114    0.0018062724995966
 115    -0.0013115723785905
 116    0.00028781576779001
 117    -7.8818816200507e-05
 118    -0.00044831385162838
 119    -0.0010081535540627
 120    0.0036767663849568
 121    -0.012741510723207
 122    -0.0035371442014645
 123     0.014027779496793
 124    -0.021900441895623
 125    -0.0058667706935119
 126     0.024285807841239
 127    -0.038148205048181
 128    -0.011726224945575
 129     0.040607766419822
 130    -0.00044958554485766
 131    -0.00048527204115589
 132    0.0014235030688022
 133    0.00015434618167441
 134    -0.0010826024680405
 135    0.00047729568937557
 136    0.0031517359318612
 137    -0.0049577376714838
 138    -0.0049795776818615
 139    0.00031753583972948
 140    -0.00078243552309237
 141    -0.0035269645293252
 142    0.00098366865930646
 143    -0.0014084678975623
 144    -0.0062864435129556
 145    -0.0023072434136095
 146    -0.0024570165882542
 147    -0.010240451878575
 148    -0.00014549721001324
 149    -0.00075668150278359
 150    0.00036486808384845
 151    0.00036449674953795
 152    -0.00031610606526558
 153    0.00040115640638559
 154    0.0026440070869324
 155    -0.0041821289394032
 156    -0.0038827165557101
 157    0.00049098146317493
 158    -0.003213591325116
 159    0.00072483075449331
 160    0.00053558543915378
 161    -0.0058065481997645
 162    0.0012360707260027
 163    0.0040027700786186
 164    -0.0084342958989138
 165    0.0022283768733251
 166    -0.00037158129382486
 167    7.6081459938435e-05
 168    0.00027772903269848
 169    -0.00022144783454024
 170    0.00062352422952836
 171    0.00016524412102215
 172    0.00057905298010612
 173    -0.010087356443378
 174    0.0006307228234352
 175    -0.00020600963712311
 176    -0.0052193186474535
 177    -0.0015999099935482
 178    0.0018937091825404
 179    -0.0064989717697668
 180    -0.00095419030189585
 181    7.5921344790963e-05
 182    -0.00024391915768331
 183    0.00049706359987425
 184    0.00098035453444748
 185    0.0060474497091052
 186    0.0069643270628196
 187    -5.0156118012158e-05
 188    7.4312678074227e-05
 189    0.00021235730065646
 190    -0.0033405063922586
 191    -0.0012743618576495
 192    -0.00010550714274731
 193    2.1174353230179e-05
 194    -0.0002044212865094
 195    -0.0031401128716867
 196    0.0085786093224487
 197    9.0101273833598e-05
 198    -0.00021065648688006
 199    0.0002901355157158
 200    0.0015356185978578
 201    -0.0032602251564392
 202    -0.0054494551396946
 203    -0.0054950352632552
 204    -0.0036006032875444
 205    0.0031618708684489
 206    -0.0041457904996208
 207    -0.0050056371435296
 208    0.0020800448061764
 209    0.00013544582563054
 210    -0.00032809640915176
 211    0.00048430198829996
 212    0.00030573260104543
 213    0.0014679103265576
 214    0.0058666041572305
 215    0.0024692322852503
 216    -0.00030359837841979
 217    0.00032604147147555
 218    0.00036076813365909
 219    0.0016370828782489
 220    0.0022837736111219
 221    -6.9573435722079e-05
 222    -0.00018765438088791
 223    -3.3212036920975e-06
 224    -0.0059561462836451
 225    0.0033454016483804
 226    -1.6051530709533e-05
 227    0.00033379070504888
 228    -0.00041137192038986
 229    -0.00058643564055499
 230    0.00055201999044526
 231    0.0081635744325259
 232    0.0012822200686826