[Molden Format]
made by pyscf v[2.2.1]
[Atoms] (AU)
Fe   1   26     3.17068844873907     0.00098706064664     0.12237737881307
O   2   8     0.00000000000000     0.00000000000000    -0.89004350580623
Fe   3   26    -3.17068844873907    -0.00098706064664     0.12237737881307
Cl   4   17     3.53383895113107    -2.07485195383062     3.76228752659000
Cl   5   17     5.54152580550813    -1.85590924879884    -2.78672786652360
Cl   6   17     4.48169216485503     3.92976278472880    -0.95330240907949
Cl   7   17    -3.53383895113107     2.07485195383062     3.76228752659000
Cl   8   17    -5.54152580550813     1.85590924879884    -2.78672786652360
Cl   9   17    -4.48169216485503    -3.92976278472880    -0.95330240907949
[GTO]
1 0
 s    6 1.00
          60923.640643  0.0017552243692958
          9147.8893982   0.013449023284001
          2081.3505927   0.066678874640978
          587.55977067    0.23176348548844
           191.0904399    0.46945550248188
          65.732730112     0.3596824938678
 s    3 1.00
          127.25891928   -0.10723431835929
           14.83091301    0.62971616328466
          6.0653307408    0.44472317896179
 s    3 1.00
           10.44994371   -0.21694289195548
          1.7245228003    0.69457867408393
         0.71772177325    0.43298308896347
 s    1 1.00
        0.091449828308                   1
 s    1 1.00
        0.033706691021                   1
 p    5 1.00
          773.43750995  0.0091440529992506
          182.15149714   0.067887577136571
          57.547272758    0.26167978878504
          20.614988935    0.51088040113251
           7.634855789    0.33235475570224
 p    3 1.00
           3.871932799    0.33193859098144
          1.4924724132     0.5553666555499
         0.56061284958    0.23106034201617
 p    1 1.00
              0.134915                   1
 d    4 1.00
          38.968133419   0.033335938558743
          10.800067078    0.17766212505983
          3.6136457999      0.441281781625
          1.2129967888    0.57089200490673
 d    1 1.00
          0.3652439317                   1
 f    1 1.00
                 1.598                   1

2 0
 s    5 1.00
          2266.1767785  -0.0053893503921743
          340.87010191   -0.04023472138896
          77.363135167   -0.18008184205526
           21.47964494   -0.46828857657651
          6.6589433124   -0.44692617160187
 s    1 1.00
         0.80975975668                   1
 s    1 1.00
         0.25530772234                   1
 p    3 1.00
          17.721504317   0.062630248763161
           3.863550544    0.33331138482352
          1.0480920883    0.74148638308122
 p    1 1.00
         0.27641544411                   1
 d    1 1.00
                   1.2                   1

3 0
 s    6 1.00
          60923.640643  0.0017552243692958
          9147.8893982   0.013449023284001
          2081.3505927   0.066678874640978
          587.55977067    0.23176348548844
           191.0904399    0.46945550248188
          65.732730112     0.3596824938678
 s    3 1.00
          127.25891928   -0.10723431835929
           14.83091301    0.62971616328466
          6.0653307408    0.44472317896179
 s    3 1.00
           10.44994371   -0.21694289195548
          1.7245228003    0.69457867408393
         0.71772177325    0.43298308896347
 s    1 1.00
        0.091449828308                   1
 s    1 1.00
        0.033706691021                   1
 p    5 1.00
          773.43750995  0.0091440529992506
          182.15149714   0.067887577136571
          57.547272758    0.26167978878504
          20.614988935    0.51088040113251
           7.634855789    0.33235475570224
 p    3 1.00
           3.871932799    0.33193859098144
          1.4924724132     0.5553666555499
         0.56061284958    0.23106034201617
 p    1 1.00
              0.134915                   1
 d    4 1.00
          38.968133419   0.033335938558743
          10.800067078    0.17766212505983
          3.6136457999      0.441281781625
          1.2129967888    0.57089200490673
 d    1 1.00
          0.3652439317                   1
 f    1 1.00
                 1.598                   1

4 0
 s    5 1.00
          10449.827566  0.0054265953789407
          1571.7365221   0.040626378128836
          357.12065523    0.18359747852877
          100.25185935    0.47438948768198
          30.812727554    0.43735181104122
 s    3 1.00
          51.923789434  -0.092754154848099
          5.7045760975    0.56380825544207
          2.3508376809    0.50367044629712
 s    1 1.00
         0.44605124672                   1
 s    1 1.00
          0.1684885619                   1
 p    5 1.00
          307.66790569  -0.0088797025588865
          72.102015515  -0.064284071721237
          22.532680262   -0.24288739736006
          7.8991765444   -0.48340836369878
          2.8767268321   -0.38952563875509
 p    1 1.00
         0.77459363955                   1
 p    1 1.00
         0.21037699698                   1
 d    1 1.00
                  0.65                   1

5 0
 s    5 1.00
          10449.827566  0.0054265953789407
          1571.7365221   0.040626378128836
          357.12065523    0.18359747852877
          100.25185935    0.47438948768198
          30.812727554    0.43735181104122
 s    3 1.00
          51.923789434  -0.092754154848099
          5.7045760975    0.56380825544207
          2.3508376809    0.50367044629712
 s    1 1.00
         0.44605124672                   1
 s    1 1.00
          0.1684885619                   1
 p    5 1.00
          307.66790569  -0.0088797025588865
          72.102015515  -0.064284071721237
          22.532680262   -0.24288739736006
          7.8991765444   -0.48340836369878
          2.8767268321   -0.38952563875509
 p    1 1.00
         0.77459363955                   1
 p    1 1.00
         0.21037699698                   1
 d    1 1.00
                  0.65                   1

6 0
 s    5 1.00
          10449.827566  0.0054265953789407
          1571.7365221   0.040626378128836
          357.12065523    0.18359747852877
          100.25185935    0.47438948768198
          30.812727554    0.43735181104122
 s    3 1.00
          51.923789434  -0.092754154848099
          5.7045760975    0.56380825544207
          2.3508376809    0.50367044629712
 s    1 1.00
         0.44605124672                   1
 s    1 1.00
          0.1684885619                   1
 p    5 1.00
          307.66790569  -0.0088797025588865
          72.102015515  -0.064284071721237
          22.532680262   -0.24288739736006
          7.8991765444   -0.48340836369878
          2.8767268321   -0.38952563875509
 p    1 1.00
         0.77459363955                   1
 p    1 1.00
         0.21037699698                   1
 d    1 1.00
                  0.65                   1

7 0
 s    5 1.00
          10449.827566  0.0054265953789407
          1571.7365221   0.040626378128836
          357.12065523    0.18359747852877
          100.25185935    0.47438948768198
          30.812727554    0.43735181104122
 s    3 1.00
          51.923789434  -0.092754154848099
          5.7045760975    0.56380825544207
          2.3508376809    0.50367044629712
 s    1 1.00
         0.44605124672                   1
 s    1 1.00
          0.1684885619                   1
 p    5 1.00
          307.66790569  -0.0088797025588865
          72.102015515  -0.064284071721237
          22.532680262   -0.24288739736006
          7.8991765444   -0.48340836369878
          2.8767268321   -0.38952563875509
 p    1 1.00
         0.77459363955                   1
 p    1 1.00
         0.21037699698                   1
 d    1 1.00
                  0.65                   1

8 0
 s    5 1.00
          10449.827566  0.0054265953789407
          1571.7365221   0.040626378128836
          357.12065523    0.18359747852877
          100.25185935    0.47438948768198
          30.812727554    0.43735181104122
 s    3 1.00
          51.923789434  -0.092754154848099
          5.7045760975    0.56380825544207
          2.3508376809    0.50367044629712
 s    1 1.00
         0.44605124672                   1
 s    1 1.00
          0.1684885619                   1
 p    5 1.00
          307.66790569  -0.0088797025588865
          72.102015515  -0.064284071721237
          22.532680262   -0.24288739736006
          7.8991765444   -0.48340836369878
          2.8767268321   -0.38952563875509
 p    1 1.00
         0.77459363955                   1
 p    1 1.00
         0.21037699698                   1
 d    1 1.00
                  0.65                   1

9 0
 s    5 1.00
          10449.827566  0.0054265953789407
          1571.7365221   0.040626378128836
          357.12065523    0.18359747852877
          100.25185935    0.47438948768198
          30.812727554    0.43735181104122
 s    3 1.00
          51.923789434  -0.092754154848099
          5.7045760975    0.56380825544207
          2.3508376809    0.50367044629712
 s    1 1.00
         0.44605124672                   1
 s    1 1.00
          0.1684885619                   1
 p    5 1.00
          307.66790569  -0.0088797025588865
          72.102015515  -0.064284071721237
          22.532680262   -0.24288739736006
          7.8991765444   -0.48340836369878
          2.8767268321   -0.38952563875509
 p    1 1.00
         0.77459363955                   1
 p    1 1.00
         0.21037699698                   1
 d    1 1.00
                  0.65                   1

[5d]
[7f]
[9g]

[MO]
 Sym= A
 Ene=               0
 Spin= Alpha
 Occup=    1.00000
   1     0.023006801370444
   2    -0.060698861923247
   3       0.3408630439735
   4      0.27645249225039
   5    -0.085197390272516
   6    0.0037698888236867
   7    -0.00095194864554766
   8    -0.0019271803552181
   9    -0.013659632449179
  10    0.0029208316496329
  11    0.0052119731267589
  12     0.064377973604663
  13    0.0017744777849909
  14     0.018960276235236
  15     0.010309433523353
  16    -0.017011420785553
  17    -0.017673674668334
  18    -0.015935573071783
  19    -0.0014257131656825
  20     0.011198863823663
  21    -0.017943217031978
  22    -0.012159560415343
  23    -0.020568357233746
  24    -0.00085276787529648
  25    0.0019948541009251
  26    0.0013079453891623
  27     -0.00274730122262
  28    -0.0011806214766575
  29    0.00050351422245321
  30    -0.0022146693747649
  31    -0.00097354980524865
  32     0.075967889948762
  33     0.093991978046698
  34      0.08158397379717
  35     0.054647114160204
  36    -0.00088696124712598
  37     0.019751472197237
  38     0.061050181080559
  39    -0.002143709198914
  40     0.021710968533337
  41    -0.0014173118342264
  42    0.0025968904831961
  43    -8.44190325863e-05
  44    0.0041281124744777
  45    2.498489905504e-05
  46    -0.00040651981201364
  47    0.00064736977259503
  48    -0.0078621435753058
  49    0.00026560002923581
  50     0.018164899623714
  51    -0.0036933653097031
  52    -6.2218678433794e-05
  53    0.00092860784941833
  54     0.011701764663569
  55    0.00020803415998742
  56    -0.0029220477399892
  57     0.011996663363765
  58    -0.0011611398483149
  59    -0.0044011404517074
  60    0.00083912666799709
  61    0.0070625966637924
  62    0.0012435045499062
  63    -0.0041223840392974
  64    -0.00017932108879201
  65    0.00017387958208624
  66    0.00094979174075387
  67    -1.8222920320406e-05
  68    7.5305426254412e-05
  69    -6.5864563896694e-05
  70    -1.0862924987981e-05
  71    -0.00010110795239639
  72    3.7817925950742e-06
  73    1.3592630407706e-05
  74    2.0725414132233e-05
  75    0.00011477343533932
  76    -3.0043566161821e-05
  77       0.0136796697463
  78    -0.094300282965824
  79      0.18910006344963
  80      0.10809728750075
  81    -0.0065442552282952
  82     0.036779338715977
  83    -0.058777753488945
  84    -0.013013499926126
  85     0.074788478714879
  86     -0.12201521719591
  87    -0.021927346770103
  88      0.10050549016625
  89     -0.16052122801957
  90     0.011282939374149
  91    0.0017907578013864
  92    -0.014007944430416
  93    -0.0043086351455722
  94    -0.0011563850613451
  95     0.013361074794352
  96    -0.092439784951771
  97      0.18853850243003
  98      0.10526523784547
  99    -0.038439364769881
 100     0.024550361810222
 101     0.045155853062716
 102    -0.079276234171415
 103     0.053749625455303
 104     0.094420466771353
 105     -0.11106955454028
 106     0.064824976470106
 107      0.12311557535167
 108    0.0050277280959552
 109     -0.01257466640196
 110    0.0096700879729623
 111    0.0014517290962388
 112    -0.0075288064422162
 113      0.01306820051957
 114    -0.090134706556462
 115      0.18087197900268
 116      0.10344368387506
 117    -0.022163955670262
 118    -0.058746248193865
 119     0.022784725706837
 120    -0.044752228581648
 121     -0.12259870501423
 122     0.043884898946395
 123    -0.065556158375044
 124      -0.1599371978302
 125     0.064309330696839
 126    -0.0059888638837843
 127    -0.002618161030189
 128    -0.0080047396899772
 129     -0.01152892553523
 130    0.0075237310463009
 131    0.0002939534958812
 132    -0.0015942767135663
 133    -0.001822736174796
 134    0.0033860727870062
 135    0.0085145488941224
 136    -0.00046526728101672
 137    -0.0011742366579895
 138     0.014548462535017
 139    -0.00013852101148722
 140    -0.00099662780678695
 141     0.024967521505245
 142    -0.0016130660421535
 143    -0.0031428036280017
 144    3.2368471547541e-05
 145    -0.00081996209128269
 146    0.00026816734224404
 147    0.00011588138232546
 148    -0.00058167835293576
 149    -0.00048235739141416
 150    0.0033665051889163
 151    -0.0060436637388376
 152    -0.0098409604382219
 153    0.0010299796021234
 154    0.0011178034834543
 155    -0.0022363301979099
 156     0.001168501748423
 157    0.0023170904845719
 158    -0.0045926802756724
 159    0.0012882585877392
 160    0.0042258483254725
 161    -0.007063537596282
 162    -6.8113924084324e-05
 163    -0.00036614287799756
 164    0.00039471707540509
 165    -0.00013941723476053
 166    0.00034192288276523
 167    -0.00020839228461761
 168    0.0016181360448704
 169    -0.004447304168525
 170    -0.0056935055186141
 171    0.0040452347601478
 172    -0.0012340846290804
 173    -0.00061518373694283
 174    0.0065301089149412
 175    -0.0030200560170247
 176    -0.0014299862031775
 177     0.010961485214775
 178    -0.0053434069504291
 179    -0.0015422199672768
 180    0.00018335090233384
 181    0.0001723840960321
 182    -4.4948719590904e-05
 183    0.00033384252380428
 184    -1.4056904707379e-05
 Sym= A
 Ene=               1
 Spin= Alpha
 Occup=    1.00000
   1    0.0012648795917099
   2    -0.0037621018199562
   3     0.016828225074365
   4    -0.031470283934089
   5     0.013867361851377
   6    0.0006801028567436
   7    0.0014721597772595
   8    -0.004781350307793
   9    -0.0021543638492427
  10    -0.0046495662849867
  11      0.01484935228473
  12    0.0023115473505143
  13    0.0056961336821399
  14    -0.021640638944374
  15      0.20119687738495
  16     -0.47912854946591
  17     -0.48269647439054
  18      0.43360305479316
  19      0.28039293086821
  20     0.054025138755344
  21     -0.12848601831986
  22     -0.13066036300691
  23      0.11767802766537
  24     0.075361809936241
  25    0.0010616791711667
  26    -0.0010612811345821
  27    -0.00098002098033125
  28    -0.00025242711459644
  29    -0.00029303978944504
  30    0.00088618873544686
  31    0.00057057841456088
  32    0.0018859897359089
  33    0.0050803381004115
  34     0.002577951858531
  35    0.0081534314049708
  36     0.014107224631228
  37    -0.048562671546364
  38    0.0090134478838709
  39     0.013770644274829
  40    -0.047328476951603
  41    -0.00018083865467137
  42    0.0011890869253026
  43    -0.00020365140199925
  44    -0.00011858137435541
  45    -0.00019541311187062
  46    0.0005114290801251
  47    -0.0015290576890936
  48    0.0068004923509772
  49    -0.0072767482298119
  50    0.0012864436095724
  51    -0.0023666549254929
  52    0.00051746881447813
  53    -0.00083037980106177
  54     0.007548399483609
  55    -0.0016465744903983
  56     0.002651807974133
  57    -0.0065114028429793
  58    0.0030334325162264
  59    -0.0084009381197516
  60    0.0013704260732373
  61    -0.00030341996886716
  62    -2.7732375907722e-05
  63    -0.0022132336781861
  64    0.00049342851826109
  65    0.0013780879540421
  66    -0.0021574598837747
  67    -0.0001582129812521
  68    -0.00082496086519609
  69    0.0008053287812994
  70    5.1303236847114e-05
  71    0.00038402157561184
  72    1.6769929579787e-05
  73    -9.3941243104944e-05
  74    -6.1507317706774e-05
  75    -0.00027407045680064
  76    0.00011800803222394
  77    -0.0013706066395042
  78    0.0089879666605634
  79    -0.011381669756891
  80    -0.0065600530094192
  81     0.018091050476329
  82    -0.0080117666052756
  83     0.010018221537063
  84     0.030679169815246
  85    -0.013822012266292
  86     0.017456479047702
  87     0.050555385360372
  88    -0.022171184403691
  89     0.027820231395757
  90    -0.000488607097446
  91     0.001970039960568
  92    -0.00044860046603524
  93    0.00087306914976325
  94    -0.0012436198814872
  95    8.4262753795652e-05
  96    -0.00057306992635025
  97    0.0022624717282038
  98    -0.0044738025193011
  99    -0.011808561128935
 100    -0.025693359850281
 101    0.0080055218505726
 102    -0.019934677575243
 103    -0.043305400289626
 104     0.013351988589724
 105    -0.031923434791826
 106    -0.073866980851193
 107     0.022213097673892
 108    -0.00070573069491736
 109    0.0013544819701289
 110    0.0016599503018204
 111    -0.0020505176609169
 112    -0.0012700003767735
 113    0.00020303712396218
 114    -0.0013446348457119
 115    0.0030944607754478
 116    -0.0025858596059228
 117     -0.01325502433251
 118     0.007767798608408
 119       0.0219152407835
 120    -0.022222000161863
 121     0.013085929633756
 122     0.036776951521784
 123    -0.037169085578419
 124     0.023045030109643
 125     0.062083048904466
 126    -0.00098890917390226
 127    0.0012745494892777
 128    0.0015503482328941
 129    -0.0016737960795798
 130    -0.0008000579540028
 131    0.00021830525994801
 132    -0.0014746954185596
 133    0.0027517755729695
 134    0.0014357576614841
 135    0.0015146928745667
 136    -0.00081420719179518
 137    -0.00074915574788557
 138    0.0027976967275244
 139    -0.0013938609031689
 140    -0.0013113161836543
 141    0.0036448492409907
 142    -0.0031933319365163
 143    -0.0029733952540909
 144    0.00010360370413815
 145    0.00030585443957855
 146    -5.4253414568212e-05
 147    -0.00017253081572368
 148    0.00024416527879795
 149    -7.9491580240656e-05
 150    0.00052346740869915
 151    -0.00040559148814825
 152    -0.0032148059697062
 153    -0.0010755953774201
 154    -7.0533825983614e-05
 155    0.00068498375217375
 156    -0.0018711464399215
 157    -0.00016998244465827
 158    0.0012308155043935
 159    -0.003639144498995
 160    0.00079918233865736
 161    0.00049712083141474
 162    -4.3434661343402e-05
 163    -0.00013847274181549
 164    5.3115083422775e-05
 165    9.306329135352e-05
 166    2.9927528918162e-05
 167    9.6367871777739e-05
 168    -0.00065243789774577
 169    0.0013791106000521
 170    -0.00029402938412087
 171    0.00072110703805008
 172    0.00038051296512878
 173    0.00077772599219066
 174     0.001314343087857
 175    0.00069549315841746
 176    0.0012824059350449
 177    0.0018871629173085
 178    0.00087096252177574
 179    0.0026515500248799
 180    0.00010375879641466
 181    -0.00013363565119667
 182    -1.4180139861961e-05
 183    -0.00010296361650091
 184    -0.00017685885178927
 Sym= A
 Ene=               2
 Spin= Alpha
 Occup=    1.00000
   1    0.00083682013132888
   2    -0.0024893802768797
   3     0.011126899387504
   4    -0.021098111385164
   5    0.0074919599021817
   6    4.8839317794595e-05
   7    -0.0064894281672198
   8    -0.0032778269357256
   9    -0.00013119326881636
  10     0.019951144277785
  11     0.010009044213263
  12    -0.00093664232705243
  13    -0.028039176471137
  14    -0.015585965902851
  15     -0.52483619210977
  16     -0.15494606069018
  17     -0.46399316462831
  18     -0.13088180237696
  19     -0.48661491083322
  20     -0.14101825607253
  21    -0.040846239231451
  22     -0.12463305714071
  23    -0.034756742905136
  24     -0.12918083951909
  25    -0.00059736039030462
  26    -0.0013448328914094
  27    -0.00055418302615729
  28    -0.00066994379456922
  29    -0.0017022222770022
  30    -7.9077173641555e-05
  31    -0.0015109213567807
  32    0.0022539013015195
  33    0.0058724446017207
  34    0.0029152987638344
  35    0.0087540656406402
  36    -0.074732670981281
  37      -0.0416100582441
  38    0.0098168229714326
  39    -0.072096489080021
  40     -0.04070623060827
  41    -0.00061153300686551
  42    0.0012249374859635
  43    -0.0011115268567892
  44    -0.00049750510064288
  45    0.0016928552961015
  46    0.0005018809618895
  47    -0.0014880383998824
  48    0.0067274749941137
  49    -0.008205115207078
  50    0.0019836403174644
  51    -0.0021224258520061
  52    -0.0021934761417588
  53    -0.00050372056860618
  54    0.0067719136081158
  55    0.0069820014435489
  56    0.0016145103357169
  57    -0.0053339925182763
  58    -0.014015586309564
  59    -0.0068133929740392
  60    0.0013920821642162
  61    0.00017686733487557
  62    0.00037419517426899
  63    -0.0017760951529359
  64    -0.0018387404154396
  65    0.0012025305747804
  66    -0.0018660512509568
  67    0.0011807312251496
  68    -0.00056058394244941
  69    -0.0048005219140357
  70    2.1941025473557e-05
  71    0.00032756825259888
  72    0.00014190556444579
  73    -0.00011380986555371
  74    0.00034480693472845
  75    -0.00026143070446888
  76    -0.00065422786221278
  77    -7.8854970888631e-05
  78    0.00051187113799938
  79    -0.0001143834713254
  80    -0.00098330254293523
  81    -0.0031687392782574
  82     0.022885340120257
  83      0.01393742350495
  84    -0.0053248524876497
  85     0.038597375501929
  86     0.023621960340255
  87    -0.0090152126501862
  88     0.065478019216427
  89      0.03989432967486
  90    0.0025940484745979
  91    -0.00043805526666029
  92    0.0013265001379725
  93    0.0014291508731801
  94    0.00011449672680956
  95    0.00043040029603225
  96    -0.002873585249354
  97    0.0053676396023296
  98    -0.003533087823718
  99    -0.016261575353218
 100    0.0098743595255635
 101    -0.013849084453489
 102    -0.027604597563642
 103     0.016581758371288
 104    -0.023263456964874
 105    -0.043886710355103
 106      0.02828440769138
 107    -0.040317740395488
 108    0.0024044505712637
 109    2.3377956024472e-05
 110    -6.1765433212285e-06
 111    -0.00087107633567357
 112    0.0012549056529408
 113    -0.0010902607924357
 114     0.007141897336279
 115    -0.0094073377389617
 116    -0.0032929743486259
 117     0.015813453219622
 118    0.0090249049082206
 119    0.0077957638401022
 120     0.026687461573943
 121      0.01548369472769
 122     0.013055508416729
 123     0.044057156715411
 124     0.024908683304573
 125      0.02272816688238
 126    -0.00094910831731468
 127    -0.00021332212702819
 128    0.0011541144319705
 129    0.00079425789495077
 130    0.0011684980993866
 131    0.0002850788622674
 132    -0.0018866705349234
 133    0.0025222031314954
 134    0.0052218363295526
 135    0.0023857231338998
 136    4.9657670296369e-05
 137    -0.0019006053627928
 138    0.0041934849035994
 139    0.00013499390862644
 140    -0.0032181292741075
 141    0.0064255766121089
 142    -0.0011132299692429
 143    -0.0079085678203318
 144    3.2750645281867e-05
 145    0.00053142725524697
 146    5.5930537772778e-05
 147    -0.00028987344343609
 148    8.7939385783921e-05
 149    9.5459728202765e-05
 150    -0.00064071608908581
 151    0.0012374978354996
 152    9.508140730177e-05
 153    0.00086067752551732
 154    0.00045498173564465
 155    0.0007757415933937
 156    0.0015435538591039
 157    0.00064824550535408
 158    0.0012443142152137
 159    0.0023753143726705
 160    0.0023029916976368
 161    0.0028034494294159
 162    0.00017251558173136
 163    -0.00012444368541049
 164    2.0628582153545e-05
 165    -0.00012125941587061
 166    -2.3550020636879e-05
 167    -0.00027004679452299
 168     0.001797263849639
 169    -0.0026231552959085
 170    -0.0044681946287083
 171    -0.0030063913015165
 172    -0.0008313136127533
 173    0.00082094929428933
 174    -0.0053988784643056
 175    -0.0013879519194825
 176    0.0014856180329912
 177    -0.0077271703277642
 178    -0.0046260092731995
 179    0.0013507125290425
 180    -0.00012517959608234
 181    -0.00021689246089883
 182    -0.00018683322068322
 183    0.00052516339515905
 184    0.00020537028402331
 Sym= A
 Ene=               3
 Spin= Alpha
 Occup=    1.00000
   1    0.00059804503277104
   2    -0.0017843597750319
   3    0.0079402333266851
   4    -0.0099865213966874
   5    -0.0018809315021092
   6      0.00231520790788
   7    0.0045291258865473
   8    -0.0042634670931419
   9    -0.0071723951297884
  10    -0.014312542920067
  11     0.013565130478543
  12    0.0063239175490313
  13    0.0075653260593878
  14    -0.0061355012573321
  15      0.55586348066966
  16      0.37303319785531
  17      -0.3013409872153
  18      0.11366494000545
  19     -0.46203326386751
  20      0.14559423247404
  21     0.096223150217135
  22      -0.0787387834797
  23      0.03118864547012
  24     -0.11903162359276
  25    0.00019362710781629
  26    0.0018344260924287
  27    5.5632633477004e-05
  28     0.001584230970978
  29    -0.0013353735888328
  30    -0.00022390540035878
  31    -0.0018717802160055
  32    -0.0049779598158834
  33    -0.012124570389047
  34    -0.0095476353605545
  35    -0.023557748720253
  36    -0.079079143609833
  37     0.071342158363259
  38    -0.026688518177762
  39    -0.077441895925542
  40      0.06952236703755
  41    0.00068743955410617
  42    -0.0020751430001904
  43    -0.0011104213519085
  44    0.0011145223125539
  45    0.0018367081167549
  46    -0.00096900575697396
  47    0.0028706699909901
  48    -0.013007590325598
  49      0.01415236702736
  50    -0.0045764984651085
  51    0.0042453548944009
  52    -0.0025147808222909
  53    0.0010413376113811
  54    -0.013609839070017
  55    0.0080029336996157
  56    -0.0033418814850527
  57     0.012845859559342
  58    -0.015320463860566
  59     0.013551832919153
  60    -0.0022851615102918
  61    -0.00056875276945466
  62    0.00039622043643035
  63    0.0041547942401444
  64    -0.0019914767131441
  65    -0.0022130939550025
  66    0.0031722177675844
  67    0.0015613242801027
  68    0.0021257478541693
  69    -0.0050398097599936
  70    -2.2133136737422e-05
  71    -0.00059028793374417
  72    6.3958897383756e-05
  73    2.0815136217377e-05
  74    0.00036733504989151
  75    0.00047517100668687
  76    -0.00069039268319424
  77     -0.00367984016032
  78     0.024117261356416
  79    -0.030100042568369
  80    -0.030378053125723
  81    -0.010528050529589
  82    -0.027798556299859
  83     0.029927237534981
  84    -0.017567946394139
  85     -0.04730926026051
  86     0.051347976048947
  87    -0.029871495317572
  88    -0.083003033799153
  89      0.09175532838923
  90    -0.0011883167765912
  91    -0.0018042786562888
  92    4.2385548454983e-05
  93    1.7072934571832e-06
  94    0.00041653104441677
  95    0.00048662714421413
  96    -0.0031576393639049
  97     0.003422253798182
  98    0.0057915354092723
  99    -0.00065968389631753
 100     -0.00517123420575
 101      0.01127638136758
 102    -0.0011588520587643
 103    -0.0089343858265685
 104      0.01921783264802
 105    -0.0026740753961396
 106    -0.013338901379881
 107     0.032106513881125
 108    -0.00081955953473088
 109    0.00044289083146352
 110    0.00033971240059018
 111    -0.00037762529163823
 112    -0.0015536943001271
 113    0.0028846433160592
 114    -0.018781370898234
 115     0.022582842589118
 116     0.025814600061504
 117    0.0005393744468333
 118    -0.029102966987689
 119     0.021818125245878
 120    0.00065253656220595
 121    -0.049104278057582
 122     0.036488586649281
 123    0.00015465826441621
 124    -0.088008205207272
 125     0.063891960022142
 126    -0.00070535268879656
 127    0.00026564207277277
 128    0.00015630071282872
 129    -0.0011071096563972
 130    0.0019089846197919
 131    -0.00016011766205939
 132    0.0010712264627787
 133    -0.0016143381293848
 134    -0.0023466848360723
 135    -0.0003565316579695
 136    0.0015006762571046
 137    0.00043115876955427
 138    -0.00061147195445557
 139    0.0023706389511591
 140    0.00078608182182811
 141    -0.0018392725310614
 142    0.0063555582831267
 143    0.0018365636871772
 144    -4.0619659519014e-05
 145    -0.00030348396562167
 146    0.00013077643678334
 147    4.8324797830611e-05
 148    -0.00030684541696409
 149    0.00018373503743216
 150     -0.00120772525739
 151    0.00097122706820649
 152    0.0071139209097904
 153    0.0025921513379077
 154    0.00053111724119749
 155    -0.00090502152815981
 156    0.0045282143356513
 157    0.00097122433573221
 158    -0.0017552559871814
 159    0.0084306661511584
 160    -0.00016445008618487
 161    0.0010152698969235
 162    0.00015044815517321
 163    0.00028353255592824
 164    -0.00012999603456279
 165    -0.00018653039077831
 166    -0.00015791054159654
 167    -0.00038769360986055
 168    0.0025977517881619
 169    -0.0045234851580337
 170    -0.0028747555368692
 171    -0.0032249542128584
 172    -0.0014621634962999
 173    -0.00096929670388276
 174    -0.0057149262888255
 175    -0.0026070470999057
 176    -0.0014598333043272
 177    -0.0092147192836825
 178    -0.005108426828861
 179    -0.0045315630999647
 180    -0.00037829866305309
 181    0.00010610685890215
 182    -0.00010199297902316