 &FCI NORB=  24,NELEC=24,MS2=0,
  ORBSYM=1,1,1,1,1,1,1,1,1,1,1,1,1,1,1,1,1,1,1,1,1,1,1,1,
  ISYM=1,
 &END
 0.5232680568325592    1    1    1    1
 0.01283062610276484    2    1    1    1
 0.006246013307832641    2    1    2    1
 0.2953677005744736    2    2    1    1
 0.0122524703523141    2    2    2    1
 0.5239924523648096    2    2    2    2
 -0.001816433417410049    3    1    1    1
 -0.0007203939083107418    3    1    2    1
 -0.006432742857683809    3    1    2    2
 0.0003790998880842736    3    1    3    1
 0.001046929445542007    3    2    1    1
 -0.0008331118965168989    3    2    2    1
 0.01487402770639102    3    2    2    2
 -0.0006673765277995033    3    2    3    1
 0.006920566536520207    3    2    3    2
 0.1909431456689273    3    3    1    1
 0.0006166695121849903    3    3    2    1
 0.3003130839639516    3    3    2    2
 -0.001053755250186871    3    3    3    1
 0.01487402770639079    3    3    3    2
 0.5239924523648095    3    3    3    3
 -0.001075105617066579    4    1    1    1
 9.693752884010324e-05    4    1    2    1
 0.001385711793158305    4    1    2    2
 -4.920722308074079e-05    4    1    3    1
 0.0002766527594096114    4    1    3    2
 0.001385711793158294    4    1    3    3
 0.0001060739913717261    4    1    4    1
 0.001192417024209707    4    2    1    1
 0.0004008312199336654    4    2    2    1
 -0.00105375525018682    4    2    2    2
 3.456704861627702e-05    4    2    3    1
 -0.000667376527799521    4    2    3    2
 -0.006432742857683902    4    2    3    3
 -4.920722308074061e-05    4    2    4    1
 0.0003790998880842737    4    2    4    2
 0.002634547347029012    4    3    1    1
 0.0005205461282925347    4    3    2    1
 0.0006166695121848523    4    3    2    2
 0.0004008312199336791    4    3    3    1
 -0.0008331118965169633    4    3    3    2
 0.01225247035231382    4    3    3    3
 9.693752884009206e-05    4    3    4    1
 -0.0007203939083107231    4    3    4    2
 0.006246013307832651    4    3    4    3
 0.1630215715495165    4    4    1    1
 0.002634547347028885    4    4    2    1
 0.1909431456689273    4    4    2    2
 0.001192417024209689    4    4    3    1
 0.001046929445541851    4    4    3    2
 0.2953677005744737    4    4    3    3
 -0.00107510561706664    4    4    4    1
 -0.001816433417410133    4    4    4    2
 0.01283062610276561    4    4    4    3
 0.5232680568325592    4    4    4    4
 -0.003111562239623087    5    1    1    1
 0.0002874113979952117    5    1    2    1
 0.0008284984882928212    5    1    2    2
 -8.447910330897851e-05    5    1    3    1
 -6.275325208532e-05    5    1    3    2
 0.0006789455835634814    5    1    3    3
 -8.099375390740942e-05    5    1    4    1
 3.130023327081579e-05    5    1    4    2
 -6.709424781694225e-05    5    1    4    3
 0.001909322072053684    5    1    4    4
 0.0005033406920963253    5    1    5    1
 0.0009848245110717952    5    2    1    1
 9.270110228955183e-05    5    2    2    1
 -0.002591724765398253    5    2    2    2
 5.756624586261701e-05    5    2    3    1
 3.199845505538532e-05    5    2    3    2
 0.001172114188680017    5    2    3    3
 -3.086598069986964e-06    5    2    4    1
 -6.077954963645928e-05    5    2    4    2
 0.0002893555418682268    5    2    4    3
 0.000715307213827215    5    2    4    4
 -7.385757691586708e-05    5    2    5    1
 0.0001725909975554048    5    2    5    2
 0.001488230013210206    5    3    1    1
 6.027493891591614e-05    5    3    2    1
 0.001803190060409349    5    3    2    2
 -8.403326564764575e-05    5    3    3    1
 0.0005282475324234388    5    3    3    2
 -0.001153070946709835    5    3    3    3
 3.927843205170381e-05    5    3    4    1
 8.338034496204637e-05    5    3    4    2
 -0.0004034533657255309    5    3    4    3
 -0.004256685114428786    5    3    4    4
 -0.0001154095130636917    5    3    5    1
 -3.890512973818829e-05    5    3    5    2
 0.0003402742477610426    5    3    5    3
 0.002041732960213032    5    4    1    1
 0.000376233347773874    5    4    2    1
 0.003378169147272419    5    4    2    2
 -5.910038594633104e-05    5    4    3    1
 0.0006438564608854403    5    4    3    2
 0.003271482416307156    5    4    3    3
 0.0001476895351362481    5    4    4    1
 0.0002766860713863614    5    4    4    2
 -0.0002199736559648222    5    4    4    3
 0.01822508952891784    5    4    4    4
 0.0006052372204582555    5    4    5    1
 9.497293300627525e-05    5    4    5    2
 -0.0004126805837112129    5    4    5    3
 0.007471064465953776    5    4    5    4
 0.1941299908154269    5    5    1    1
 0.003562865328282525    5    5    2    1
 0.1760837392262334    5    5    2    2
 0.000465730482245869    5    5    3    1
 0.003780895153360355    5    5    3    2
 0.2029073063845938    5    5    3    3
 0.002184264569936801    5    5    4    1
 0.0009340592995607022    5    5    4    2
 0.002740839065911568    5    5    4    3
 0.3090234968654736    5    5    4    4
 -0.0001756612177476902    5    5    5    1
 -0.003619265560374892    5    5    5    2
 0.0003938135869965482    5    5    5    3
 0.01010031653799496    5    5    5    4
 0.5558597091699341    5    5    5    5
 0.01822508952891835    6    1    1    1
 -0.0002199736559648617    6    1    2    1
 0.003271482416307401    6    1    2    2
 0.0002766860713863675    6    1    3    1
 0.000643856460885447    6    1    3    2
 0.00337816914727255    6    1    3    3
 0.0001476895351362453    6    1    4    1
 -5.910038594632509e-05    6    1    4    2
 0.0003762333477738603    6    1    4    3
 0.002041732960213183    6    1    4    4
 -0.0008692335360157745    6    1    5    1
 0.0002902098159456057    6    1    5    2
 5.596935238244402e-05    6    1    5    3
 0.0005072483464538826    6    1    5    4
 -0.0009095160349198086    6    1    5    5
 0.007471064465953798    6    1    6    1
 -0.004256685114428808    6    2    1    1
 -0.0004034533657255076    6    2    2    1
 -0.001153070946709779    6    2    2    2
 8.338034496204164e-05    6    2    3    1
 0.0005282475324234209    6    2    3    2
 0.001803190060409389    6    2    3    3
 3.927843205170701e-05    6    2    4    1
 -8.403326564764554e-05    6    2    4    2
 6.027493891590994e-05    6    2    4    3
 0.001488230013210215    6    2    4    4
 5.08903838572069e-05    6    2    5    1
 -1.688345404123595e-05    6    2    5    2
 3.825277036058921e-05    6    2    5    3
 5.59693523824049e-05    6    2    5    4
 0.002281172675673821    6    2    5    5
 -0.000412680583711255    6    2    6    1
 0.0003402742477610416    6    2    6    2
 0.0007153072138272146    6    3    1    1
 0.0002893555418682187    6    3    2    1
 0.001172114188679968    6    3    2    2
 -6.077954963645465e-05    6    3    3    1
 3.199845505539435e-05    6    3    3    2
 -0.00259172476539833    6    3    3    3
 -3.086598069991327e-06    6    3    4    1
 5.756624586261699e-05    6    3    4    2
 9.270110228956199e-05    6    3    4    3
 0.0009848245110717691    6    3    4    4
 9.020897872083071e-05    6    3    5    1
 -7.140410137322037e-06    6    3    5    2
 -1.688345404123457e-05    6    3    5    3
 0.0002902098159456237    6    3    5    4
 0.001063182604355776    6    3    5    5
 9.497293300629458e-05    6    3    6    1
 -3.890512973819039e-05    6    3    6    2
 0.0001725909975554019    6    3    6    3
 0.001909322072053884    6    4    1    1
 -6.70942478169425e-05    6    4    2    1
 0.0006789455835635902    6    4    2    2
 3.130023327081158e-05    6    4    3    1
 -6.275325208532031e-05    6    4    3    2
 0.0008284984882928549    6    4    3    3
 -8.099375390740034e-05    6    4    4    1
 -8.447910330897418e-05    6    4    4    2
 0.0002874113979951886    6    4    4    3
 -0.003111562239623151    6    4    4    4
 -3.291234148395051e-06    6    4    5    1
 9.020897872083448e-05    6    4    5    2
 5.089038385720482e-05    6    4    5    3
 -0.0008692335360158097    6    4    5    4
 -0.007826772008809497    6    4    5    5
 0.0006052372204582439    6    4    6    1
 -0.0001154095130636938    6    4    6    2
 -7.385757691586334e-05    6    4    6    3
 0.000503340692096324    6    4    6    4
 -0.001110039736463556    6    5    1    1
 0.000557438109924253    6    5    2    1
 0.002343698754050444    6    5    2    2
 -4.103408876154019e-05    6    5    3    1
 0.0004748965459698209    6    5    3    2
 0.002343698754050414    6    5    3    3
 0.0002530103662804833    6    5    4    1
 -4.103408876154254e-05    6    5    4    2
 0.0005574381099242275    6    5    4    3
 -0.001110039736463726    6    5    4    4
 -0.0007130378582019731    6    5    5    1
 5.529855230506991e-05    6    5    5    2
 0.0005574122176063479    6    5    5    3
 -0.001443903550850004    6    5    5    4
 0.0100034159194151    6    5    5    5
 -0.001443903550849956    6    5    6    1
 0.0005574122176063266    6    5    6    2
 5.52985523050573e-05    6    5    6    3
 -0.0007130378582019272    6    5    6    4
 0.005907875219740351    6    5    6    5
 0.3090234968654743    6    6    1    1
 0.002740839065911147    6    6    2    1
 0.2029073063845941    6    6    2    2
 0.0009340592995607767    6    6    3    1
 0.003780895153360344    6    6    3    2
 0.1760837392262336    6    6    3    3
 0.002184264569936814    6    6    4    1
 0.0004657304822458654    6    6    4    2
 0.003562865328282646    6    6    4    3
 0.1941299908154271    6    6    4    4
 -0.007826772008809664    6    6    5    1
 0.001063182604355839    6    6    5    2
 0.00228117267567374    6    6    5    3
 -0.0009095160349198712    6    6    5    4
 0.3048451134946098    6    6    5    5
 0.01010031653799492    6    6    6    1
 0.000393813586996648    6    6    6    2
 -0.00361926556037488    6    6    6    3
 -0.0001756612177472474    6    6    6    4
 0.01000341591941561    6    6    6    5
 0.5558597091699353    6    6    6    6
 0.0005374053301127144    7    1    1    1
 1.251883858028954e-05    7    1    2    1
 3.702477976330988e-05    7    1    2    2
 3.082424483479665e-05    7    1    3    1
 0.0001031928584218769    7    1    3    2
 0.0006461276580816517    7    1    3    3
 5.521396568946867e-05    7    1    4    1
 -8.887955529095463e-06    7    1    4    2
 4.444114700702329e-05    7    1    4    3
 0.001176627793008223    7    1    4    4
 -0.0001418638032704911    7    1    5    1
 1.311178164724145e-05    7    1    5    2
 2.034212192056915e-05    7    1    5    3
 -2.715980865715993e-05    7    1    5    4
 0.002436575168122229    7    1    5    5
 0.0003981115505468996    7    1    6    1
 4.283971308999232e-05    7    1    6    2
 -3.003399278133397e-05    7    1    6    3
 -2.858971123245922e-05    7    1    6    4
 0.000135647271436629    7    1    6    5
 0.003960447814318813    7    1    6    6
 0.0001686041614396037    7    1    7    1
 -0.0002107409254715422    7    2    1    1
 -5.446350139105954e-05    7    2    2    1
 -6.939821128601299e-05    7    2    2    2
 1.220087628641053e-05    7    2    3    1
 8.969027291631935e-05    7    2    3    2
 0.0003023757098978375    7    2    3    3
 -8.864117714515501e-07    7    2    4    1
 -1.516876216729365e-05    7    2    4    2
 1.404030448476591e-05    7    2    4    3
 0.0001051299605828712    7    2    4    4
 8.1163800492062e-06    7    2    5    1
 4.022386836365466e-06    7    2    5    2
 1.584271095428711e-06    7    2    5    3
 2.328637171935922e-05    7    2    5    4
 -0.0001166434341725766    7    2    5    5
 3.990426783361683e-05    7    2    6    1
 2.553094711616299e-05    7    2    6    2
 5.567020222201591e-07    7    2    6    3
 4.534592021923798e-06    7    2    6    4
 8.243782527781841e-06    7    2    6    5
 -0.0003465621032015784    7    2    6    6
 -1.943680545318106e-05    7    2    7    1
 9.985057084907209e-06    7    2    7    2
 0.0002797579099120106    7    3    1    1
 3.875891974837381e-05    7    3    2    1
 0.0002738554315965328    7    3    2    2
 -1.174927490555245e-05    7    3    3    1
 2.245157933499363e-05    7    3    3    2
 -0.0005376638327030333    7    3    3    3
 2.611739579008767e-06    7    3    4    1
 1.11231518654666e-05    7    3    4    2
 -1.27706278482585e-05    7    3    4    3
 -0.0001071211353403422    7    3    4    4
 -1.192702764426396e-06    7    3    5    1
 -4.674848344235806e-07    7    3    5    2
 9.113885359050576e-06    7    3    5    3
 1.452769347096528e-05    7    3    5    4
 0.0001135528279571692    7    3    5    5
 2.144733849421227e-06    7    3    6    1
 -3.771620004310095e-06    7    3    6    2
 1.319554219466166e-05    7    3    6    3
 -1.559411952872223e-06    7    3    6    4
 1.044210188556604e-05    7    3    6    5
 0.0002591860010377945    7    3    6    6
 1.155140824570223e-05    7    3    7    1
 -4.197505855537133e-06    7    3    7    2
 5.656736897870408e-06    7    3    7    3
 0.000128562435856385    7    4    1    1
 -1.610064238981549e-06    7    4    2    1
 -9.810926162345977e-05    7    4    2    2
 -8.750569495559582e-07    7    4    3    1
 3.907338179129498e-08    7    4    3    2
 -0.0004140267174264688    7    4    3    3
 8.531888173223533e-06    7    4    4    1
 9.41250700276648e-06    7    4    4    2
 -5.197815265418874e-05    7    4    4    3
 -0.001597753069396922    7    4    4    4
 -2.261747423833044e-05    7    4    5    1
 -9.261392497833383e-07    7    4    5    2
 2.269838933560963e-05    7    4    5    3
 -0.0001573100356270618    7    4    5    4
 -0.000192685176517355    7    4    5    5
 -3.984841081923005e-06    7    4    6    1
 -2.685649760504859e-07    7    4    6    2
 -4.206239853532307e-06    7    4    6    3
 1.64352062861789e-05    7    4    6    4
 6.448164733530237e-05    7    4    6    5
 0.0002665589767845702    7    4    6    6
 -7.428419626897155e-06    7    4    7    1
 4.837310992034681e-06    7    4    7    2
 -5.062654090081634e-06    7    4    7    3
 3.147353354023723e-05    7    4    7    4
 -0.0002326620359890412    7    5    1    1
 1.267586475055695e-05    7    5    2    1
 2.113724254916191e-06    7    5    2    2
 1.274988589797555e-06    7    5    3    1
 2.083148098343922e-05    7    5    3    2
 7.272824270337338e-05    7    5    3    3
 -3.109091571148709e-06    7    5    4    1
 8.863784673267487e-07    7    5    4    2
 1.132379684588742e-05    7    5    4    3
 3.798468359794883e-06    7    5    4    4
 3.751246817016459e-05    7    5    5    1
 5.71816431875938e-06    7    5    5    2
 -5.384429652327342e-06    7    5    5    3
 8.350803170586797e-05    7    5    5    4
 -0.0001763591904011702    7    5    5    5
 2.832361850828816e-05    7    5    6    1
 8.248632106646769e-06    7    5    6    2
 5.78043723836048e-06    7    5    6    3
 2.341175914111266e-05    7    5    6    4
 -7.426395815901147e-05    7    5    6    5
 -0.0002742140164534954    7    5    6    6
 3.147024885414754e-05    7    5    7    1
 -1.221984451682045e-05    7    5    7    2
 1.325831024292189e-05    7    5    7    3
 -3.731981885660981e-05    7    5    7    4
 8.828310880928199e-05    7    5    7    5
 0.002633588828434513    7    6    1    1
 0.0001475679589041897    7    6    2    1
 0.001472124085715993    7    6    2    2
 -2.204672821811512e-05    7    6    3    1
 3.989620907478323e-05    7    6    3    2
 0.0006276487956014801    7    6    3    3
 -2.433875072442316e-05    7    6    4    1
 4.235534935746334e-07    7    6    4    2
 6.527789427844174e-05    7    6    4    3
 -0.0002285022476216273    7    6    4    4
 3.378543127746775e-05    7    6    5    1
 3.680729706187337e-05    7    6    5    2
 8.43492339146811e-07    7    6    5    3
 0.0002178358332523246    7    6    5    4
 -0.00199406159342982    7    6    5    5
 0.0008578266508403769    7    6    6    1
 -7.335861696322734e-05    7    6    6    2
 3.595195757453934e-05    7    6    6    3
 0.0001244995229886777    7    6    6    4
 -0.000123125723702639    7    6    6    5
 -0.0007133847326070819    7    6    6    6
 -0.000211043658339439    7    6    7    1
 5.571519964736306e-05    7    6    7    2
 -2.575313172843134e-05    7    6    7    3
 2.589802531708106e-05    7    6    7    4
 -7.992286255087542e-05    7    6    7    5
 0.000722628016274386    7    6    7    6
 0.1335442879670884    7    7    1    1
 -0.0005728090814808399    7    7    2    1
 0.1005857414910823    7    7    2    2
 0.0005411116459616995    7    7    3    1
 0.0005938190419218625    7    7    3    2
 0.09288760057433455    7    7    3    3
 0.0004170400660663418    7    7    4    1
 0.0003301401146535148    7    7    4    2
 0.0004632636559331568    7    7    4    3
 0.1048143544411321    7    7    4    4
 -0.001597027404442475    7    7    5    1
 1.752953512810166e-05    7    7    5    2
 0.0005879220719769492    7    7    5    3
 -0.001403313177702879    7    7    5    4
 0.1442460572153136    7    7    5    5
 -0.001249887689082349    7    7    6    1
 4.751650548034594e-05    7    7    6    2
 -0.0005922762285972184    7    7    6    3
 -0.0003892478675218936    7    7    6    4
 0.0004372151486987224    7    7    6    5
 0.1789976639922989    7    7    6    6
 0.0006674479047750045    7    7    7    1
 -0.0005265432384642337    7    7    7    2
 0.0005294128608111856    7    7    7    3
 -0.001761706226894545    7    7    7    4
 0.003477337842103378    7    7    7    5
 -0.003676867896590528    7    7    7    6
 0.5228408307327048    7    7    7    7
 -0.003429870743085832    8    1    1    1
 -7.408543943453322e-05    8    1    2    1
 -0.000953896016136596    8    1    2    2
 -6.477334182973966e-05    8    1    3    1
 -0.0002434284380800161    8    1    3    2
 -0.001806046514797194    8    1    3    3
 -0.0001176084813876092    8    1    4    1
 1.908716539141629e-05    8    1    4    2
 -0.000126548739413567    8    1    4    3
 -0.002583753733293457    8    1    4    4
 0.0003503936022611017    8    1    5    1
 -4.728796912263975e-05    8    1    5    2
 -5.372471447886186e-05    8    1    5    3
 1.995635322514324e-05    8    1    5    4
 -0.00515088048831671    8    1    5    5
 -0.001123407910325241    8    1    6    1
 -7.025594304871231e-05    8    1    6    2
 7.28625292755266e-05    8    1    6    3
 2.814418363183838e-05    8    1    6    4
 -0.000300544421726599    8    1    6    5
 -0.01027977324827071    8    1    6    6
 -0.0001976839762406682    8    1    7    1
 -6.011121589567405e-06    8    1    7    2
 1.055531511329896e-06    8    1    7    3
 -2.773813010512429e-05    8    1    7    4
 5.978749585370623e-05    8    1    7    5
 -8.673045340380891e-06    8    1    7    6
 0.002733751822146312    8    1    7    7
 0.00078026405949746    8    1    8    1
 0.000583989615087554    8    2    1    1
 0.0001371893328200097    8    2    2    1
 0.0002674338669336298    8    2    2    2
 -2.905716237238839e-05    8    2    3    1
 -0.0001745657352966874    8    2    3    2
 -0.0005114987354705373    8    2    3    3
 3.731791928471441e-06    8    2    4    1
 2.952649129701607e-05    8    2    4    2
 -2.175195189338074e-05    8    2    4    3
 -0.0001513689377915638    8    2    4    4
 -2.288788855027758e-05    8    2    5    1
 -7.368424673995148e-06    8    2    5    2
 -3.038190095293029e-06    8    2    5    3
 -5.171803662700725e-05    8    2    5    4
 0.000336291414869843    8    2    5    5
 -9.401250889690269e-05    8    2    6    1
 -5.395301164525445e-05    8    2    6    2
 -4.015069098139878e-06    8    2    6    3
 -1.247771049957328e-05    8    2    6    4
 -3.84641948120954e-06    8    2    6    5
 0.0009749753601523049    8    2    6    6
 9.959035659992578e-06    8    2    7    1
 -1.153253903588398e-05    8    2    7    2
 1.839088796518237e-06    8    2    7    3
 4.910820541311191e-06    8    2    7    4
 -1.114241797209793e-05    8    2    7    5
 -4.310082286139506e-05    8    2    7    6
 -0.0001563545020014517    8    2    7    7
 -4.259809202186988e-05    8    2    8    1
 3.449679561204943e-05    8    2    8    2
 -0.0006243600168193424    8    3    1    1
 -8.294950932521023e-05    8    3    2    1
 -0.0005612480018378952    8    3    2    2
 2.13827181272122e-05    8    3    3    1
 -2.780305627396423e-05    8    3    3    2
 0.0009896123798366567    8    3    3    3
 -4.813706451206255e-06    8    3    4    1
 -2.017676683068219e-05    8    3    4    2
 1.232361756062515e-05    8    3    4    3
 0.0001373399059419671    8    3    4    4
 1.585107279800896e-06    8    3    5    1
 -1.239326060683644e-06    8    3    5    2
 -1.292407817383276e-05    8    3    5    3
 -3.991740916679946e-05    8    3    5    4
 -0.0002262888560685418    8    3    5    5
 -8.899578742846335e-06    8    3    6    1
 9.679106413375931e-06    8    3    6    2
 -2.525107926144124e-05    8    3    6    3
 1.003980893549488e-06    8    3    6    4
 -1.287605651118801e-05    8    3    6    5
 -0.0005834188531616845    8    3    6    6
 -3.409590321345187e-06    8    3    7    1
 1.629974946121153e-06    8    3    7    2
 -5.636788489232697e-06    8    3    7    3
 -2.018649372231116e-06    8    3    7    4
 6.003041774973487e-07    8    3    7    5
 1.983924528979802e-06    8    3    7    6
 0.0001580903676943467    8    3    7    7
 2.719485737637033e-05    8    3    8    1
 -7.0047969862627e-06    8    3    8    2
 1.340573955834318e-05    8    3    8    3
 -0.0001537812540380131    8    4    1    1
 4.694794609992213e-06    8    4    2    1
 0.0002485872208717895    8    4    2    2
 3.021253675927911e-07    8    4    3    1
 1.224897276234723e-05    8    4    3    2
 0.0007837058643662122    8    4    3    3
 -1.227625106420639e-05    8    4    4    1
 -1.083436319963203e-05    8    4    4    2
 8.898384685277496e-05    8    4    4    3
 0.003237641647955722    8    4    4    4
 5.717735802563036e-05    8    4    5    1
 -6.935662891672795e-07    8    4    5    2
 -4.917343397161136e-05    8    4    5    3
 0.0004465839404883368    8    4    5    4
 0.0007608869247755228    8    4    5    5
 3.404025616746621e-05    8    4    6    1
 -5.666384615614669e-06    8    4    6    2
 1.49482605221162e-05    8    4    6    3
 -4.569899318665343e-05    8    4    6    4
 -0.0001792495747697778    8    4    6    5
 -0.0005181029781768842    8    4    6    6
 -7.876982580603318e-06    8    4    7    1
 1.952687858845573e-06    8    4    7    2
 -7.567705420166059e-07    8    4    7    3
 -3.199076718040705e-05    8    4    7    4
 1.5200316871971e-05    8    4    7    5
 1.94248834865251e-05    8    4    7    6
 2.092952652267665e-05    8    4    7    7
 4.115327359526036e-05    8    4    8    1
 -1.008425918883519e-05    8    4    8    2
 3.762679127676701e-08    8    4    8    3
 8.223067595949858e-05    8    4    8    4
 0.0002737082667356934    8    5    1    1
 -1.54054573693163e-05    8    5    2    1
 -4.049165307312545e-06    8    5    2    2
 -4.644878313364344e-06    8    5    3    1
 -4.078090767811375e-05    8    5    3    2
 7.960169481000242e-05    8    5    3    3
 1.406621666528785e-05    8    5    4    1
 -3.917678270853708e-06    8    5    4    2
 -1.068322592636491e-05    8    5    4    3
 0.0007007307066276031    8    5    4    4
 -7.432428683330518e-05    8    5    5    1
 -2.525791824238431e-05    8    5    5    2
 2.090527477268621e-06    8    5    5    3
 -7.146756888809189e-05    8    5    5    4
 0.001318936740960618    8    5    5    5
 -0.0001376266416679316    8    5    6    1
 3.708102156385031e-06    8    5    6    2
 -8.922456656423791e-06    8    5    6    3
 -9.949182715250118e-05    8    5    6    4
 0.0002184533859800028    8    5    6    5
 0.0004701172101340926    8    5    6    6
 1.901550739243656e-05    8    5    7    1
 -6.598557289284073e-06    8    5    7    2
 -7.654325361985199e-07    8    5    7    3
 6.012228004635681e-06    8    5    7    4
 -4.770227818558994e-05    8    5    7    5
 -7.135103759413103e-05    8    5    7    6
 0.0006623750748895392    8    5    7    7
 -3.899074064173205e-05    8    5    8    1
 1.934677973992799e-05    8    5    8    2
 8.876265505871415e-06    8    5    8    3
 -5.325631056137923e-05    8    5    8    4
 0.0002259847502837924    8    5    8    5
 -0.004567630498459933    8    6    1    1
 -0.0004717340346548982    8    6    2    1
 -0.00296704007914032    8    6    2    2
 7.622072773924148e-05    8    6    3    1
 -0.0001232885706972982    8    6    3    2
 -0.001590787129938305    8    6    3    3
 4.620995276455451e-05    8    6    4    1
 -6.695279555165003e-06    8    6    4    2
 -0.0001405929914918267    8    6    4    3
 -0.0002636388153193712    8    6    4    4
 -0.0001415473310365218    8    6    5    1
 -4.883812751982787e-05    8    6    5    2
 6.003553183074219e-06    8    6    5    3
 -0.0005267372133741881    8    6    5    4
 0.003430781153844174    8    6    5    5
 -0.002181615209361109    8    6    6    1
 0.0001050135726407825    8    6    6    2
 -0.0001309682155132536    8    6    6    3
 -0.0001940029832117612    8    6    6    4
 3.190208716102786e-05    8    6    6    5
 0.004768076060866647    8    6    6    6
 7.848639247074271e-05    8    6    7    1
 -1.968498705653554e-05    8    6    7    2
 -6.549638471787169e-06    8    6    7    3
 6.527691066423955e-05    8    6    7    4
 -0.0001599477682968674    8    6    7    5
 -0.0008088252576657824    8    6    7    6
 -0.004193884248209755    8    6    7    7
 -0.0009003303736272303    8    6    8    1
 0.0001890589868997541    8    6    8    2
 -7.216125724969601e-05    8    6    8    3
 -8.784159176335292e-05    8    6    8    4
 8.28583269078182e-05    8    6    8    5
 0.005067072213442535    8    6    8    6
 -0.001081621897309863    8    7    1    1
 -9.750001892765423e-05    8    7    2    1
 -0.000912733818699797    8    7    2    2
 9.78637593621173e-06    8    7    3    1
 -4.716788481620369e-05    8    7    3    2
 -0.0009636112548030126    8    7    3    3
 -4.41709535904817e-05    8    7    4    1
 -2.754991572530287e-06    8    7    4    2
 -3.157158878080762e-05    8    7    4    3
 -0.001433084809071114    8    7    4    4
 9.994644501261105e-05    8    7    5    1
 1.25892164278337e-05    8    7    5    2
 -2.938670457419304e-05    8    7    5    3
 8.48320550147706e-05    8    7    5    4
 -0.003511669998058335    8    7    5    5
 0.0001354125853510233    8    7    6    1
 -6.238339316637911e-05    8    7    6    2
 2.421804713165408e-05    8    7    6    3
 0.0001199347593408336    8    7    6    4
 -0.0004629789198583851    8    7    6    5
 -0.00412693435833009    8    7    6    6
 0.0004277535646656687    8    7    7    1
 -0.00011922381695546    8    7    7    2
 7.781451702805088e-05    8    7    7    3
 -0.000160540990254481    8    7    7    4
 0.0004543968168523801    8    7    7    5
 -0.001092253850166259    8    7    7    6
 0.01714273091034548    8    7    7    7
 0.0008483340020359086    8    7    8    1
 -0.0001436730789726642    8    7    8    2
 4.034924149093956e-05    8    7    8    3
 0.000113271927893097    8    7    8    4
 -9.33430254252174e-05    8    7    8    5
 -0.001996001840889844    8    7    8    6
 0.007108007172691033    8    7    8    7
 0.1790842337386404    8    8    1    1
 -0.000168652057302638    8    8    2    1
 0.1304243038381063    8    8    2    2
 0.0007543163753581693    8    8    3    1
 0.001379602416004972    8    8    3    2
 0.1223556532796134    8    8    3    3
 0.001228560978789422    8    8    4    1
 0.0004352352734819386    8    8    4    2
 0.0009375390047496817    8    8    4    3
 0.1453339846703525    8    8    4    4
 -0.003690003271528638    8    8    5    1
 -6.742722619407992e-05    8    8    5    2
 0.001181487957535445    8    8    5    3
 -0.003441877305413472    8    8    5    4
 0.2274878233325644    8    8    5    5
 -0.004457792595390598    8    8    6    1
 0.0007580670929472367    8    8    6    2
 -0.001378239663358666    8    8    6    3
 -0.001735277661182426    8    8    6    4
 0.004517503766928413    8    8    6    5
 0.2950986924536488    8    8    6    6
 0.004035044567910191    8    8    7    1
 -0.0008872893197890176    8    8    7    2
 0.0003987029524145327    8    8    7    3
 -0.0001560149095783665    8    8    7    4
 0.0008762114338550871    8    8    7    5
 -0.009780671904970402    8    8    7    6
 0.3057125231730589    8    8    7    7
 -0.0006949911536132259    8    8    8    1
 0.001472251375084058    8    8    8    2
 -0.0002172734534644844    8    8    8    3
 -0.0003760917467737092    8    8    8    4
 0.001228829260302758    8    8    8    5
 0.005428847711543859    8    8    8    6
 0.008304038670826712    8    8    8    7
 0.5560831118310471    8    8    8    8
 0.003237641647955702    9    1    1    1
 8.898384685277234e-05    9    1    2    1
 0.0007837058643662179    9    1    2    2
 -1.08343631996326e-05    9    1    3    1
 1.224897276234719e-05    9    1    3    2
 0.0002485872208717993    9    1    3    3
 -1.227625106420581e-05    9    1    4    1
 3.021253675940858e-07    9    1    4    2
 4.694794609988712e-06    9    1    4    3
 -0.0001537812540379809    9    1    4    4
 -4.569899318664885e-05    9    1    5    1
 1.494826052211531e-05    9    1    5    2
 -5.666384615613638e-06    9    1    5    3
 3.404025616746658e-05    9    1    5    4
 -0.0005181029781768637    9    1    5    5
 0.0004465839404883385    9    1    6    1
 -4.917343397161156e-05    9    1    6    2
 -6.935662891684664e-07    9    1    6    3
 5.717735802563287e-05    9    1    6    4
 -0.0001792495747697805    9    1    6    5
 0.0007608869247755166    9    1    6    6
 2.140642193414767e-05    9    1    7    1
 2.406095457248762e-07    9    1    7    2
 1.000361507900166e-06    9    1    7    3
 -2.553607377673873e-06    9    1    7    4
 1.232360258528288e-05    9    1    7    5
 5.472124280895294e-05    9    1    7    6
 -0.0002497474361414244    9    1    7    7
 -5.831387136471893e-05    9    1    8    1