[Molden Format]
made by pyscf v[2.4.0]
[Atoms] (AU)
Fe   1   26     3.17068844873907     0.00098706064664     0.12237737881307
O   2   8     0.00000000000000     0.00000000000000    -0.89004350580623
Fe   3   26    -3.17068844873907    -0.00098706064664     0.12237737881307
Cl   4   17     3.53383895113107    -2.07485195383062     3.76228752659000
Cl   5   17     5.54152580550813    -1.85590924879884    -2.78672786652360
Cl   6   17     4.48169216485503     3.92976278472880    -0.95330240907949
Cl   7   17    -3.53383895113107     2.07485195383062     3.76228752659000
Cl   8   17    -5.54152580550813     1.85590924879884    -2.78672786652360
Cl   9   17    -4.48169216485503    -3.92976278472880    -0.95330240907949
[GTO]
1 0
 s    6 1.00
              61132.62  0.0017661109761772
              9179.342   0.013530379817491
              2090.857   0.066731279099873
              589.2479    0.23148229687757
              188.7543    0.47970579352933
              64.44629    0.35019759527624
 s    6 1.00
               1259.98   0.002438014026839
              299.8761   0.032240480354921
              96.84917    0.12657240139338
               36.3102  -0.031399020345658
              14.72996   -0.62075930683366
              6.066075   -0.45029140495706
 s    6 1.00
              50.43485  -0.0038732559842369
              16.83929   0.071965979707118
              7.192086    0.25565909895954
               3.05342   -0.28828369882676
              1.273643   -0.73428219701167
              0.504091   -0.20493529916597
 s    3 1.00
              1.950316   0.056948690305124
              0.736721    0.28829150154463
              0.114177    -1.1381590060981
 s    1 1.00
              0.041148                   1
 p    6 1.00
               1259.98  0.0040280186654072
              299.8761   0.031446467387857
              96.84917    0.13683168863389
               36.3102    0.34872357103281
              14.72996    0.46179306164054
              6.066075    0.20430578302906
 p    6 1.00
              50.43485  -0.0070171278804837
              16.83929  -0.028776599509875
              7.192086   0.061813828947182
               3.05342     0.3954945932639
              1.273643    0.49890589150259
              0.504091    0.17912509694913
 p    3 1.00
              1.950316   -0.45937961634956
              0.736721    0.28521391015091
              0.114177    0.90764853230368
 p    1 1.00
              0.041148                   1
 d    3 1.00
              23.14994   0.088769354792419
              6.122368    0.38963192103518
              1.846601    0.70148163787111
 d    1 1.00
              0.504361                   1
 f    1 1.00
                   0.8                   1

2 0
 s    6 1.00
             5484.6717   0.001831099805527
             825.23495   0.013950098518422
             188.04696    0.06844509273075
               52.9645    0.23271427528445
              16.89757    0.47019295006289
             5.7996353    0.35852086192309
 s    3 1.00
             15.539616   -0.11077750382508
             3.5999336   -0.14802630511126
             1.0137618     1.1307670390447
 s    1 1.00
             0.2700058                   1
 p    3 1.00
             15.539616   0.070874299543311
             3.5999336    0.33975279781076
             1.0137618    0.72715859531445
 p    1 1.00
             0.2700058                   1
 d    1 1.00
                   0.8                   1

3 0
 s    6 1.00
              61132.62  0.0017661109761772
              9179.342   0.013530379817491
              2090.857   0.066731279099873
              589.2479    0.23148229687757
              188.7543    0.47970579352933
              64.44629    0.35019759527624
 s    6 1.00
               1259.98   0.002438014026839
              299.8761   0.032240480354921
              96.84917    0.12657240139338
               36.3102  -0.031399020345658
              14.72996   -0.62075930683366
              6.066075   -0.45029140495706
 s    6 1.00
              50.43485  -0.0038732559842369
              16.83929   0.071965979707118
              7.192086    0.25565909895954
               3.05342   -0.28828369882676
              1.273643   -0.73428219701167
              0.504091   -0.20493529916597
 s    3 1.00
              1.950316   0.056948690305124
              0.736721    0.28829150154463
              0.114177    -1.1381590060981
 s    1 1.00
              0.041148                   1
 p    6 1.00
               1259.98  0.0040280186654072
              299.8761   0.031446467387857
              96.84917    0.13683168863389
               36.3102    0.34872357103281
              14.72996    0.46179306164054
              6.066075    0.20430578302906
 p    6 1.00
              50.43485  -0.0070171278804837
              16.83929  -0.028776599509875
              7.192086   0.061813828947182
               3.05342     0.3954945932639
              1.273643    0.49890589150259
              0.504091    0.17912509694913
 p    3 1.00
              1.950316   -0.45937961634956
              0.736721    0.28521391015091
              0.114177    0.90764853230368
 p    1 1.00
              0.041148                   1
 d    3 1.00
              23.14994   0.088769354792419
              6.122368    0.38963192103518
              1.846601    0.70148163787111
 d    1 1.00
              0.504361                   1
 f    1 1.00
                   0.8                   1

4 0
 s    6 1.00
               25180.1  0.0018330003117875
               3780.35   0.014034002387139
               860.474   0.069097011753181
               242.145    0.23745204038983
               77.3349    0.48303408216255
                26.247    0.33985605780843
 s    6 1.00
               491.765  -0.0022974019889149
               116.984  -0.030714026589855
               37.4153   -0.11252809741822
               13.7834   0.045016038971443
               5.45215    0.58935351021719
               2.22588    0.46520640274012
 s    3 1.00
               3.18649    -0.2518312880459
               1.14427   0.061589315011948
              0.420377     1.0601854225489
 s    1 1.00
              0.142657                   1
 p    6 1.00
               491.765  0.0039894005477754
               116.984   0.030318004162896
               37.4153    0.12988001783353
               13.7834     0.3279510450302
               5.45215    0.45352706227276
               2.22588    0.25215403462269
 p    3 1.00
               3.18649   -0.01429901271425
               1.14427    0.32357228771069
              0.420377    0.74350766110453
 p    1 1.00
              0.142657                   1
 d    1 1.00
                  0.75                   1

5 0
 s    6 1.00
               25180.1  0.0018330003117875
               3780.35   0.014034002387139
               860.474   0.069097011753181
               242.145    0.23745204038983
               77.3349    0.48303408216255
                26.247    0.33985605780843
 s    6 1.00
               491.765  -0.0022974019889149
               116.984  -0.030714026589855
               37.4153   -0.11252809741822
               13.7834   0.045016038971443
               5.45215    0.58935351021719
               2.22588    0.46520640274012
 s    3 1.00
               3.18649    -0.2518312880459
               1.14427   0.061589315011948
              0.420377     1.0601854225489
 s    1 1.00
              0.142657                   1
 p    6 1.00
               491.765  0.0039894005477754
               116.984   0.030318004162896
               37.4153    0.12988001783353
               13.7834     0.3279510450302
               5.45215    0.45352706227276
               2.22588    0.25215403462269
 p    3 1.00
               3.18649   -0.01429901271425
               1.14427    0.32357228771069
              0.420377    0.74350766110453
 p    1 1.00
              0.142657                   1
 d    1 1.00
                  0.75                   1

6 0
 s    6 1.00
               25180.1  0.0018330003117875
               3780.35   0.014034002387139
               860.474   0.069097011753181
               242.145    0.23745204038983
               77.3349    0.48303408216255
                26.247    0.33985605780843
 s    6 1.00
               491.765  -0.0022974019889149
               116.984  -0.030714026589855
               37.4153   -0.11252809741822
               13.7834   0.045016038971443
               5.45215    0.58935351021719
               2.22588    0.46520640274012
 s    3 1.00
               3.18649    -0.2518312880459
               1.14427   0.061589315011948
              0.420377     1.0601854225489
 s    1 1.00
              0.142657                   1
 p    6 1.00
               491.765  0.0039894005477754
               116.984   0.030318004162896
               37.4153    0.12988001783353
               13.7834     0.3279510450302
               5.45215    0.45352706227276
               2.22588    0.25215403462269
 p    3 1.00
               3.18649   -0.01429901271425
               1.14427    0.32357228771069
              0.420377    0.74350766110453
 p    1 1.00
              0.142657                   1
 d    1 1.00
                  0.75                   1

7 0
 s    6 1.00
               25180.1  0.0018330003117875
               3780.35   0.014034002387139
               860.474   0.069097011753181
               242.145    0.23745204038983
               77.3349    0.48303408216255
                26.247    0.33985605780843
 s    6 1.00
               491.765  -0.0022974019889149
               116.984  -0.030714026589855
               37.4153   -0.11252809741822
               13.7834   0.045016038971443
               5.45215    0.58935351021719
               2.22588    0.46520640274012
 s    3 1.00
               3.18649    -0.2518312880459
               1.14427   0.061589315011948
              0.420377     1.0601854225489
 s    1 1.00
              0.142657                   1
 p    6 1.00
               491.765  0.0039894005477754
               116.984   0.030318004162896
               37.4153    0.12988001783353
               13.7834     0.3279510450302
               5.45215    0.45352706227276
               2.22588    0.25215403462269
 p    3 1.00
               3.18649   -0.01429901271425
               1.14427    0.32357228771069
              0.420377    0.74350766110453
 p    1 1.00
              0.142657                   1
 d    1 1.00
                  0.75                   1

8 0
 s    6 1.00
               25180.1  0.0018330003117875
               3780.35   0.014034002387139
               860.474   0.069097011753181
               242.145    0.23745204038983
               77.3349    0.48303408216255
                26.247    0.33985605780843
 s    6 1.00
               491.765  -0.0022974019889149
               116.984  -0.030714026589855
               37.4153   -0.11252809741822
               13.7834   0.045016038971443
               5.45215    0.58935351021719
               2.22588    0.46520640274012
 s    3 1.00
               3.18649    -0.2518312880459
               1.14427   0.061589315011948
              0.420377     1.0601854225489
 s    1 1.00
              0.142657                   1
 p    6 1.00
               491.765  0.0039894005477754
               116.984   0.030318004162896
               37.4153    0.12988001783353
               13.7834     0.3279510450302
               5.45215    0.45352706227276
               2.22588    0.25215403462269
 p    3 1.00
               3.18649   -0.01429901271425
               1.14427    0.32357228771069
              0.420377    0.74350766110453
 p    1 1.00
              0.142657                   1
 d    1 1.00
                  0.75                   1

9 0
 s    6 1.00
               25180.1  0.0018330003117875
               3780.35   0.014034002387139
               860.474   0.069097011753181
               242.145    0.23745204038983
               77.3349    0.48303408216255
                26.247    0.33985605780843
 s    6 1.00
               491.765  -0.0022974019889149
               116.984  -0.030714026589855
               37.4153   -0.11252809741822
               13.7834   0.045016038971443
               5.45215    0.58935351021719
               2.22588    0.46520640274012
 s    3 1.00
               3.18649    -0.2518312880459
               1.14427   0.061589315011948
              0.420377     1.0601854225489
 s    1 1.00
              0.142657                   1
 p    6 1.00
               491.765  0.0039894005477754
               116.984   0.030318004162896
               37.4153    0.12988001783353
               13.7834     0.3279510450302
               5.45215    0.45352706227276
               2.22588    0.25215403462269
 p    3 1.00
               3.18649   -0.01429901271425
               1.14427    0.32357228771069
              0.420377    0.74350766110453
 p    1 1.00
              0.142657                   1
 d    1 1.00
                  0.75                   1

[5d]
[7f]
[9g]

[MO]
 Sym= A
 Ene=               0
 Spin= Alpha
 Occup=    1.00000
   1    -0.00014734387908246
   2    -0.0019704602546911
   3       1.0050178823105
   4     -0.03027353230985
   5    -0.010111617577262
   6    1.2807676686487e-05
   7    1.2714398476732e-05
   8    3.9657659844781e-05
   9    0.0032465670403204
  10    -0.00015091867730804
  11    -0.00047954657662613
  12    -0.0062436879732715
  13    -3.4295785672884e-05
  14    -0.0025467133127812
  15    0.0049243138651648
  16    -0.00031041715513074
  17    0.00069053329231098
  18    -0.0048303279117011
  19    0.0050308422712438
  20    -0.00015340698162615
  21    0.0097416807506557
  22    -5.5117582002957e-05
  23    -0.0034356197806297
  24    0.0034617878749802
  25    -0.00021859516286432
  26    0.0069011058497352
  27    -4.8285841090959e-05
  28    0.00049432931342233
  29    0.00043952050163985
  30    -9.9967918678935e-05
  31    -0.00059004417895996
  32    1.2064628481592e-05
  33    -0.00088417250835061
  34    -6.6554786543082e-05
  35    0.00065368718526096
  36    0.00083959625795302
  37    -0.0027011817643622
  38     0.031513163176007
  39    -9.9372545603921e-05
  40    0.0098507512679709
  41     0.025048175743895
  42    -1.7989191461973e-05
  43    0.0088755349108589
  44    0.00034112242688112
  45      0.00112456103594
  46    -1.1793533554208e-06
  47    0.00010467971959092
  48    3.9581752909188e-06
  49    -5.9665584972012e-05
  50    0.00022191324662825
  51    -0.0033918167640651
  52    0.0077605056530752
  53    0.0052324651965851
  54    0.00023150990249548
  55    -1.2200345278953e-05
  56    -4.2973910546969e-05
  57    0.0023481173744886
  58    -1.876212698422e-06
  59    -0.0014035813640539
  60    -0.0033102634470983
  61    -0.00014569940748177
  62    0.0020006273387456
  63    0.0027501968986231
  64    0.00023204812506897
  65    0.00024293029836151
  66    0.0015174109525097
  67    0.0062383655717878
  68    4.1533986108148e-06
  69    -0.0053836929195646
  70    -9.8097160736501e-05
  71    0.00091167601724488
  72     0.004649519554718
  73    -7.2696981952731e-05
  74    -0.0037086674161198
  75    -0.00011399609644714
  76    -0.00038684214512372
  77    -3.8206347692081e-06
  78    -7.3397755181514e-06
  79    0.00056615634771489
  80    1.1124871116519e-05
  81    -0.00041287332051386
  82    -4.9573937685867e-06
  83    -0.00012165033276681
  84    0.00068531427441283
  85    -0.00082740170855484
  86    -0.0035135055900024
  87    -0.00018121413896589
  88    0.00053856774054491
  89    -0.00088503106944674
  90    0.00061352276055032
  91    -0.0015198148611573
  92    0.0025591342808252
  93    0.00027293009401529
  94    -0.0020636688612875
  95      0.00349839128673
  96    -0.00046913491926696
  97    -5.1379784669603e-05
  98    0.0005048302629403
  99    0.00017482067694049
 100    3.5044762852221e-05
 101    -8.2804806238838e-05
 102    0.00056966856220959
 103    -0.00020753738253242
 104    -0.0043714931493075
 105    -0.00050786969356344
 106    0.00036406319548936
 107    0.0006192087720396
 108    0.0015051967434417
 109    -0.0010958396392918
 110    -0.0017524337439838
 111    0.0024018152882394
 112    -0.0015333695404345
 113    -0.0028893714119042
 114    -0.00015148802464718
 115    0.00051208484181615
 116    -0.00036444781067452
 117    -7.3633241463972e-05
 118    0.00032980494909299
 119    -8.8514556013409e-05
 120    0.00056558255520074
 121    -0.00036972187334876
 122    -0.0036610470928468
 123    -0.00029210473178007
 124    -0.00079354138439818
 125    0.00028989522165039
 126    0.00085918054242215
 127    0.0022470321547031
 128    -0.00075622927206514
 129    0.0013880913415429
 130    0.0037852400696862
 131    -0.0012739275847283
 132    0.00026061378194056
 133    8.777080705735e-05
 134    0.00028480365226826
 135    0.00051552573289444
 136    -0.00031256042312158
 137    7.185469643773e-07
 138    -5.1161442226977e-05
 139    -0.00015353254936697
 140    0.00047958624117465
 141    0.00011687522236293
 142    1.367103522197e-05
 143    4.7160923906295e-05
 144    -0.0003697345978536
 145    -3.1280824674217e-05
 146    -0.00013736709545651
 147    0.00050456072248854
 148    -0.00022426334943242
 149    -0.00054229464812514
 150    -2.577987733046e-05
 151    -6.8799612145954e-05
 152    -1.1562175632309e-05
 153    3.1449023346125e-05
 154    -5.8398718654759e-05
 155    3.9479005483551e-05
 156    -0.00013568705968973
 157    0.00060812212855857
 158    0.00041727415429435
 159    -1.4135225821873e-05
 160    4.6769990428959e-05
 161    -7.7683853913672e-05
 162    0.00014664743003335
 163    -0.00017510016316774
 164    0.00026638374892768
 165    0.00031075623742896
 166    -0.00027507644470231
 167    0.00030397909196085
 168    8.0536177702754e-05
 169    -2.1403175034842e-05
 170    -2.9825567310193e-06
 171    -0.0001276278866145
 172    6.9392706220501e-05
 173    1.6775481231381e-05
 174    -8.5852531721373e-05
 175    0.00017074938697371
 176    0.00069058707441434
 177    8.5811956441501e-05
 178    -4.0328196685165e-05
 179    -6.0737097588166e-06
 180    -0.00024202163520844
 181    0.0001729836473858
 182    1.1492464254756e-05
 183    0.00047347419707686
 184    0.00052014481035767
 185    3.9192651058113e-05
 186    5.6218947979538e-05
 187    4.8937698105399e-05
 188    3.0275761942895e-05
 189    -2.4587463792119e-05
 190    -0.00012008810585687
 Sym= A
 Ene=               1
 Spin= Alpha
 Occup=    1.00000
   1    3.2089941833422e-05
   2    -0.00062139271817827
   3    0.0052733839750161
   4    -0.014077685058792
   5    -0.010542948909899
   6    -0.0017078983239174
   7    5.2859510614547e-05
   8    -0.00054550585781039
   9       0.9357478231464
  10      0.01127196783509
  11      0.35885375198008
  12    -0.026178952973925
  13     0.001021303596638
  14    -0.0086953792646959
  15     0.012712557430073
  16    0.0004076314422387
  17    0.0033872464718567
  18    -0.0085139209072323
  19     0.011609007507554
  20    0.0011342665935325
  21      0.01774656568242
  22    0.00042163445090048
  23    -0.0057303335547359
  24     0.007959091490184
  25    0.00084751775388735
  26     0.011890092359235
  27    0.00031299185993706
  28    0.00043968554745526
  29    0.00042455166358696
  30    -7.5339306648202e-05
  31    -0.00051143618869887
  32    0.00028308697752723
  33    -0.00076319431062305
  34    -3.6998722025482e-05
  35     0.001298989921396
  36    0.0011924419518795
  37    -0.002468100454134
  38     0.026278197106489
  39    -6.1068081246283e-05
  40    0.0078733860811446
  41     0.024391819231936
  42    -0.00027834113268566
  43    0.0082424775110122
  44    0.00035204534870267
  45    0.00094744713833987
  46    -4.8638251217149e-06
  47    2.5932759826834e-05
  48    -2.5859581015745e-05
  49    -0.00010499712425621
  50    6.8338112355926e-05
  51    -0.0030853979871855
  52    0.0073764635517558
  53    0.0079756619647302
  54    0.00042969019417879
  55    -5.6827430060843e-06
  56    -0.00016762562045552
  57    0.0019101101262536
  58    1.019838313245e-05
  59    -0.0012806600233891
  60    -0.0029016544068374
  61    -5.2184109486193e-05
  62    0.0012475061185816
  63    0.0026354557397351
  64    -0.00038862007015702
  65    -0.0011033578030976
  66    0.0014634579524954
  67    0.0065658100015221
  68    -4.0949886470468e-07
  69    -0.0054653270981497
  70    -0.00011994013627169
  71    0.00084363061583016
  72    0.0045357553510222
  73    -0.00015359638496926
  74    -0.0035784972423468
  75    -9.2560654290118e-05
  76    -0.00030027881171109
  77    3.274435338531e-06
  78    -2.7093982323674e-05
  79    0.00043494573690758
  80    4.0031645636894e-06
  81    -0.00034450844211047
  82    1.8867222427568e-07
  83    -3.7013019622327e-05
  84    -2.4022918861331e-05
  85    -0.0010991742308614
  86    0.0031683105245486
  87    -0.0003090752580076
  88    -8.5055452890424e-05
  89    8.2923205683817e-05
  90    0.00084435633300499
  91    0.00019546375272578
  92    -0.00018437056637916
  93     0.001523702685997
  94    0.0010148811563645
  95    -0.0013390169047103
  96    0.00030224498397905
  97    -0.00068414364288097
  98    -0.00059189709520673
  99    -0.00023586098811793
 100    0.00040550681116058
 101    -1.0524631176882e-05
 102    -5.0056831625707e-05
 103    -0.00047624863606249
 104    0.0020404625461587
 105    -0.00016056976615871
 106    -0.00012743734528514
 107    -0.00021873520244531
 108     0.000457395126125
 109    0.00039247181185573
 110    0.00056572422125244
 111    0.00059185446403003
 112    0.00040131403609137
 113    0.0017870748704174
 114    0.00079556240341534
 115    -5.0205875724604e-05
 116    0.00058524391322633
 117    -0.0003650896486089
 118    0.00010446039798684
 119    -2.3333887494472e-05
 120    5.1076053727183e-05
 121    -0.00047014010035061
 122    0.00065747014505747
 123    -0.00022582319654145
 124    5.6699885993822e-05
 125    -2.6682847726105e-05
 126    0.00060399405051302
 127    -0.00011936690141529
 128    -3.1629552201194e-05
 129    0.0014794931841728
 130    -0.00021195820079736
 131    0.00091190960582192
 132    4.0183373598616e-05
 133    8.7881757387624e-05
 134    -0.00052417207186687
 135    -0.00046992938269362
 136    -0.00051479119748094
 137    -1.4460115158707e-05
 138    -4.5961068072098e-05
 139    -0.00053685329511922
 140    0.0015701480949146
 141    0.00018094235752477
 142    -3.4277951046276e-06
 143    -7.4002904982285e-06
 144    -0.00054306948728579
 145    1.1562887163211e-05
 146    -2.090815898165e-05
 147    0.00061169531586915
 148    -0.00031462873607014
 149    -0.00046714053345362
 150    -3.9402059783262e-05
 151    -8.3142956345182e-05
 152    -1.8431179328978e-05
 153    2.5556179732412e-05
 154    -6.5020868205565e-05
 155    3.2169009425455e-05
 156    -5.3828187458357e-05
 157    0.00071203995756355
 158    -0.00063400595156384
 159    0.00014721256146835
 160    2.629361052312e-05
 161    -4.1876584382498e-05
 162    -0.00036776481766495
 163    -0.00016425267118249
 164    0.00015632006015013
 165    0.00038460600432407
 166    0.00016794685815711
 167    0.00023022408421175
 168    8.078438092989e-05
 169    -3.2816128327462e-05
 170    1.0218177239006e-05
 171    -0.00011621091020734
 172    8.6737415760971e-05
 173    4.7360513056761e-06
 174    -1.3450380235737e-05
 175    0.00011418840094677
 176    0.0001108112116121
 177    0.00022187297037825
 178    4.9466126619412e-05
 179    4.5220693856349e-06
 180    -0.00070540039840156
 181    -5.9042969353396e-05
 182    -5.7267319838766e-05
 183    0.00088294858065598
 184    0.00021185582639325
 185    0.00031517232618172
 186    6.0198561460458e-05
 187    5.3418671090779e-05
 188    4.0497897947828e-05
 189     7.30128238483e-06
 190    -0.00011800797424406
 Sym= A
 Ene=               2
 Spin= Alpha
 Occup=    1.00000
   1    -1.7068886793748e-05
   2    -0.00016346359144217
   3    0.00079236536738999
   4    -0.0025395190230218
   5     0.005472697767517
   6    0.00075772329418009
   7    -0.00098930966643129
   8    -0.0017842403991963
   9     -0.31502682772727
  10      0.50006997519857
  11      0.80513571432871
  12    0.0087945120111921
  13    -0.010617562286019
  14    -0.020659104580574
  15    -0.0041641258952392
  16    0.0040815719677762
  17     0.005203084253333
  18    0.0038608474419465
  19    0.00028058270712258
  20    0.0044847422474002
  21    -0.0015788159316617
  22    0.00081752970085826
  23    0.0030178834685957
  24    0.00080919698168854
  25    0.0032503650211398
  26    -0.0010899148932471
  27    0.00091013129675903
  28    0.00031942498976151
  29    -0.00075780306893438
  30    0.00028890844523559
  31    -0.00067563933534217
  32    -0.00060473225935751
  33    0.00017966010469977
  34    -0.00037129361866134
  35    -8.4001983521857e-05
  36    0.00039951424619349
  37    -0.00046108388264028
  38    0.0010932793381097
  39    -0.0040571277467306
  40    -0.0073135922817145
  41    -0.0013828516546415
  42    -0.0024198933457447
  43    -0.0037773166388005
  44    0.00012341318242956
  45    0.00057862403382788
  46    5.2117395806037e-05
  47    -0.00012804370472472
  48    0.00033042095126819
  49    -2.176968205588e-05
  50    4.5569192854989e-05
  51    -8.9718575416195e-05
  52    0.0020177757487848
  53    -0.0026343348412178
  54    5.9432824247597e-05
  55    -2.3271757235089e-05
  56    -3.9363855278489e-05
  57    4.6909905932075e-05
  58    6.7524884003766e-05
  59    0.00016704077834505
  60     -0.00100903681731
  61    -0.00060197933845972
  62    -0.00035709239513068
  63    -0.0010743035194841
  64    -0.00085216340925606
  65    -0.001099632468062
  66    0.0011439184231644
  67    -0.00071095137785162
  68    0.00035924989194738
  69    -0.0011592620627619
  70    -0.00082174217986223
  71    0.0010719602081181
  72    -0.0006101000522621
  73    0.00032647119035286
  74    -0.0010517087558488
  75    -0.00078252517592581
  76    6.9532318596377e-06
  77    0.00019380433484055
  78    1.5852442655115e-05
  79    -4.4840784657014e-05
  80    6.2610147958032e-05
  81    -0.00011840113582313
  82    -0.00011587637122619
  83    7.9391806760029e-05
  84    -0.00034240768236888
  85    0.00092212118361242
  86    0.0017544216866888
  87    0.00016695952705444
  88    -0.00049923767509413
  89    0.00036845908634532
  90    -0.00044325269745644
  91    0.0013471109256639
  92    -0.0012256777492488
  93    -0.0010338804551719
  94     0.002906817006981
  95    -0.0010989200646731
  96    -0.00024052527774284
  97    0.00033746211842796
  98    -0.00088389674324213
  99    -0.00047685474470727
 100    -0.00029258451167911
 101    -0.00012691377286993
 102    0.00088185359592708
 103    -0.00029143135306533
 104    -0.0090777323702945
 105    -0.00074907018772332
 106    0.00052473134548692
 107    0.00084955135002223
 108    0.0021463923858577
 109    -0.0015748586107698
 110    -0.0025561356760571
 111    0.0051097562484708
 112    -0.0033358776156549
 113    -0.0047575678081579
 114    -0.00025149169873064
 115    0.0012635868675214
 116    -0.00085764502924275
 117    -0.00029640143813253
 118    0.00083620249582629
 119    4.6141445053884e-05
 120    -8.318913639538e-05
 121    0.00093136199374514
 122    -0.0018836806159378
 123    0.00021301964096872
 124    0.00010454839727181
 125    -0.00029763811651985
 126    -0.00066663348881134
 127    -0.00027375060431123
 128    0.00073369926945365
 129    -0.00015397786180107
 130    0.00028832342814451
 131    0.0018119538376546
 132    0.00030211919994175
 133    -0.00036555074059217
 134    -0.00066653406841163
 135    0.00024045011688399
 136    0.00020842327849235
 137    1.6280586174536e-05
 138    -7.5337070210864e-05
 139    0.00017476351900562
 140    0.00060628162434916
 141    -4.4603937342343e-05
 142    1.1079398903282e-05
 143    2.2360233119127e-05
 144    0.00017060076770403
 145    -4.7348782187089e-06
 146    -2.3776365978697e-05
 147    -0.00032688163473533
 148    -0.00035121887834614
 149    -0.00065904611002835
 150    3.7922392916648e-05
 151    5.1158247021594e-05
 152    2.1454255102782e-05
 153    -4.8085183207686e-05
 154    1.8579775829723e-05
 155    -4.4704470963994e-06
 156    -1.0176063011557e-05
 157    -0.00015578980762965
 158    0.0003527928386267
 159    2.7567368913434e-06
 160    -1.355675551637e-05
 161    -1.7354355181658e-05
 162    -3.3745092555486e-05
 163    4.3727952802445e-05
 164    3.1031766871518e-05
 165    0.00029124349618486
 166    5.5002208181377e-05
 167    0.00029922258650108
 168    -1.0505507534463e-05
 169    1.583625661793e-05
 170    1.4496303148864e-06
 171    2.3663869451437e-05
 172    -3.6130374658625e-05
 173    -7.2859310385904e-06
 174    5.3969927034543e-06
 175    -0.0001814951893448
 176    7.2330733870121e-05
 177    8.0677282780518e-06
 178    -3.8090242775361e-06
 179    -2.8454188959484e-05
 180    -7.3815480118917e-05
 181    -2.4903296560411e-05
 182    9.8476266558863e-05
 183    0.00031301410026178
 184    0.00018026134809354
 185    1.5753077699751e-05
 186    -2.7195711000375e-05
 187    -2.101464784517e-05
 188    -1.893817448814e-05
 189    1.1777313458682e-05
 190    5.9128008043845e-05
 Sym= A
 Ene=               3
 Spin= Alpha
 Occup=    1.00000
   1    -9.2109417269096e-06
   2    -7.5400106116146e-05
   3    0.00043781030144698
   4    -0.0011137054144461
   5    0.0015868114790192
   6    0.00040839392074788
   7    0.0020333630761449
   8    -0.0012428951004144
   9     -0.17022705867819
  10     -0.86433068923237
  11      0.46934464176456
  12    0.0044163147053032
  13     0.023770028640409
  14    -0.015600509076509
  15    -0.0014476862074584
  16    -0.0047241031219639
  17    0.0017044594102891
  18    -0.00051680469710787
  19    0.00086633489094216
  20    -0.0014391126504356