[Molden Format]
made by pyscf v[2.4.0]
[Atoms] (AU)
Fe   1   26     3.17068844873907     0.00098706064664     0.12237737881307
O   2   8     0.00000000000000     0.00000000000000    -0.89004350580623
Fe   3   26    -3.17068844873907    -0.00098706064664     0.12237737881307
Cl   4   17     3.53383895113107    -2.07485195383062     3.76228752659000
Cl   5   17     5.54152580550813    -1.85590924879884    -2.78672786652360
Cl   6   17     4.48169216485503     3.92976278472880    -0.95330240907949
Cl   7   17    -3.53383895113107     2.07485195383062     3.76228752659000
Cl   8   17    -5.54152580550813     1.85590924879884    -2.78672786652360
Cl   9   17    -4.48169216485503    -3.92976278472880    -0.95330240907949
[GTO]
1 0
 s    6 1.00
              61132.62  0.0017661109761772
              9179.342   0.013530379817491
              2090.857   0.066731279099873
              589.2479    0.23148229687757
              188.7543    0.47970579352933
              64.44629    0.35019759527624
 s    6 1.00
               1259.98   0.002438014026839
              299.8761   0.032240480354921
              96.84917    0.12657240139338
               36.3102  -0.031399020345658
              14.72996   -0.62075930683366
              6.066075   -0.45029140495706
 s    6 1.00
              50.43485  -0.0038732559842369
              16.83929   0.071965979707118
              7.192086    0.25565909895954
               3.05342   -0.28828369882676
              1.273643   -0.73428219701167
              0.504091   -0.20493529916597
 s    3 1.00
              1.950316   0.056948690305124
              0.736721    0.28829150154463
              0.114177    -1.1381590060981
 s    1 1.00
              0.041148                   1
 p    6 1.00
               1259.98  0.0040280186654072
              299.8761   0.031446467387857
              96.84917    0.13683168863389
               36.3102    0.34872357103281
              14.72996    0.46179306164054
              6.066075    0.20430578302906
 p    6 1.00
              50.43485  -0.0070171278804837
              16.83929  -0.028776599509875
              7.192086   0.061813828947182
               3.05342     0.3954945932639
              1.273643    0.49890589150259
              0.504091    0.17912509694913
 p    3 1.00
              1.950316   -0.45937961634956
              0.736721    0.28521391015091
              0.114177    0.90764853230368
 p    1 1.00
              0.041148                   1
 d    3 1.00
              23.14994   0.088769354792419
              6.122368    0.38963192103518
              1.846601    0.70148163787111
 d    1 1.00
              0.504361                   1
 f    1 1.00
                   0.8                   1

2 0
 s    6 1.00
             5484.6717   0.001831099805527
             825.23495   0.013950098518422
             188.04696    0.06844509273075
               52.9645    0.23271427528445
              16.89757    0.47019295006289
             5.7996353    0.35852086192309
 s    3 1.00
             15.539616   -0.11077750382508
             3.5999336   -0.14802630511126
             1.0137618     1.1307670390447
 s    1 1.00
             0.2700058                   1
 p    3 1.00
             15.539616   0.070874299543311
             3.5999336    0.33975279781076
             1.0137618    0.72715859531445
 p    1 1.00
             0.2700058                   1
 d    1 1.00
                   0.8                   1

3 0
 s    6 1.00
              61132.62  0.0017661109761772
              9179.342   0.013530379817491
              2090.857   0.066731279099873
              589.2479    0.23148229687757
              188.7543    0.47970579352933
              64.44629    0.35019759527624
 s    6 1.00
               1259.98   0.002438014026839
              299.8761   0.032240480354921
              96.84917    0.12657240139338
               36.3102  -0.031399020345658
              14.72996   -0.62075930683366
              6.066075   -0.45029140495706
 s    6 1.00
              50.43485  -0.0038732559842369
              16.83929   0.071965979707118
              7.192086    0.25565909895954
               3.05342   -0.28828369882676
              1.273643   -0.73428219701167
              0.504091   -0.20493529916597
 s    3 1.00
              1.950316   0.056948690305124
              0.736721    0.28829150154463
              0.114177    -1.1381590060981
 s    1 1.00
              0.041148                   1
 p    6 1.00
               1259.98  0.0040280186654072
              299.8761   0.031446467387857
              96.84917    0.13683168863389
               36.3102    0.34872357103281
              14.72996    0.46179306164054
              6.066075    0.20430578302906
 p    6 1.00
              50.43485  -0.0070171278804837
              16.83929  -0.028776599509875
              7.192086   0.061813828947182
               3.05342     0.3954945932639
              1.273643    0.49890589150259
              0.504091    0.17912509694913
 p    3 1.00
              1.950316   -0.45937961634956
              0.736721    0.28521391015091
              0.114177    0.90764853230368
 p    1 1.00
              0.041148                   1
 d    3 1.00
              23.14994   0.088769354792419
              6.122368    0.38963192103518
              1.846601    0.70148163787111
 d    1 1.00
              0.504361                   1
 f    1 1.00
                   0.8                   1

4 0
 s    6 1.00
               25180.1  0.0018330003117875
               3780.35   0.014034002387139
               860.474   0.069097011753181
               242.145    0.23745204038983
               77.3349    0.48303408216255
                26.247    0.33985605780843
 s    6 1.00
               491.765  -0.0022974019889149
               116.984  -0.030714026589855
               37.4153   -0.11252809741822
               13.7834   0.045016038971443
               5.45215    0.58935351021719
               2.22588    0.46520640274012
 s    3 1.00
               3.18649    -0.2518312880459
               1.14427   0.061589315011948
              0.420377     1.0601854225489
 s    1 1.00
              0.142657                   1
 p    6 1.00
               491.765  0.0039894005477754
               116.984   0.030318004162896
               37.4153    0.12988001783353
               13.7834     0.3279510450302
               5.45215    0.45352706227276
               2.22588    0.25215403462269
 p    3 1.00
               3.18649   -0.01429901271425
               1.14427    0.32357228771069
              0.420377    0.74350766110453
 p    1 1.00
              0.142657                   1
 d    1 1.00
                  0.75                   1

5 0
 s    6 1.00
               25180.1  0.0018330003117875
               3780.35   0.014034002387139
               860.474   0.069097011753181
               242.145    0.23745204038983
               77.3349    0.48303408216255
                26.247    0.33985605780843
 s    6 1.00
               491.765  -0.0022974019889149
               116.984  -0.030714026589855
               37.4153   -0.11252809741822
               13.7834   0.045016038971443
               5.45215    0.58935351021719
               2.22588    0.46520640274012
 s    3 1.00
               3.18649    -0.2518312880459
               1.14427   0.061589315011948
              0.420377     1.0601854225489
 s    1 1.00
              0.142657                   1
 p    6 1.00
               491.765  0.0039894005477754
               116.984   0.030318004162896
               37.4153    0.12988001783353
               13.7834     0.3279510450302
               5.45215    0.45352706227276
               2.22588    0.25215403462269
 p    3 1.00
               3.18649   -0.01429901271425
               1.14427    0.32357228771069
              0.420377    0.74350766110453
 p    1 1.00
              0.142657                   1
 d    1 1.00
                  0.75                   1

6 0
 s    6 1.00
               25180.1  0.0018330003117875
               3780.35   0.014034002387139
               860.474   0.069097011753181
               242.145    0.23745204038983
               77.3349    0.48303408216255
                26.247    0.33985605780843
 s    6 1.00
               491.765  -0.0022974019889149
               116.984  -0.030714026589855
               37.4153   -0.11252809741822
               13.7834   0.045016038971443
               5.45215    0.58935351021719
               2.22588    0.46520640274012
 s    3 1.00
               3.18649    -0.2518312880459
               1.14427   0.061589315011948
              0.420377     1.0601854225489
 s    1 1.00
              0.142657                   1
 p    6 1.00
               491.765  0.0039894005477754
               116.984   0.030318004162896
               37.4153    0.12988001783353
               13.7834     0.3279510450302
               5.45215    0.45352706227276
               2.22588    0.25215403462269
 p    3 1.00
               3.18649   -0.01429901271425
               1.14427    0.32357228771069
              0.420377    0.74350766110453
 p    1 1.00
              0.142657                   1
 d    1 1.00
                  0.75                   1

7 0
 s    6 1.00
               25180.1  0.0018330003117875
               3780.35   0.014034002387139
               860.474   0.069097011753181
               242.145    0.23745204038983
               77.3349    0.48303408216255
                26.247    0.33985605780843
 s    6 1.00
               491.765  -0.0022974019889149
               116.984  -0.030714026589855
               37.4153   -0.11252809741822
               13.7834   0.045016038971443
               5.45215    0.58935351021719
               2.22588    0.46520640274012
 s    3 1.00
               3.18649    -0.2518312880459
               1.14427   0.061589315011948
              0.420377     1.0601854225489
 s    1 1.00
              0.142657                   1
 p    6 1.00
               491.765  0.0039894005477754
               116.984   0.030318004162896
               37.4153    0.12988001783353
               13.7834     0.3279510450302
               5.45215    0.45352706227276
               2.22588    0.25215403462269
 p    3 1.00
               3.18649   -0.01429901271425
               1.14427    0.32357228771069
              0.420377    0.74350766110453
 p    1 1.00
              0.142657                   1
 d    1 1.00
                  0.75                   1

8 0
 s    6 1.00
               25180.1  0.0018330003117875
               3780.35   0.014034002387139
               860.474   0.069097011753181
               242.145    0.23745204038983
               77.3349    0.48303408216255
                26.247    0.33985605780843
 s    6 1.00
               491.765  -0.0022974019889149
               116.984  -0.030714026589855
               37.4153   -0.11252809741822
               13.7834   0.045016038971443
               5.45215    0.58935351021719
               2.22588    0.46520640274012
 s    3 1.00
               3.18649    -0.2518312880459
               1.14427   0.061589315011948
              0.420377     1.0601854225489
 s    1 1.00
              0.142657                   1
 p    6 1.00
               491.765  0.0039894005477754
               116.984   0.030318004162896
               37.4153    0.12988001783353
               13.7834     0.3279510450302
               5.45215    0.45352706227276
               2.22588    0.25215403462269
 p    3 1.00
               3.18649   -0.01429901271425
               1.14427    0.32357228771069
              0.420377    0.74350766110453
 p    1 1.00
              0.142657                   1
 d    1 1.00
                  0.75                   1

9 0
 s    6 1.00
               25180.1  0.0018330003117875
               3780.35   0.014034002387139
               860.474   0.069097011753181
               242.145    0.23745204038983
               77.3349    0.48303408216255
                26.247    0.33985605780843
 s    6 1.00
               491.765  -0.0022974019889149
               116.984  -0.030714026589855
               37.4153   -0.11252809741822
               13.7834   0.045016038971443
               5.45215    0.58935351021719
               2.22588    0.46520640274012
 s    3 1.00
               3.18649    -0.2518312880459
               1.14427   0.061589315011948
              0.420377     1.0601854225489
 s    1 1.00
              0.142657                   1
 p    6 1.00
               491.765  0.0039894005477754
               116.984   0.030318004162896
               37.4153    0.12988001783353
               13.7834     0.3279510450302
               5.45215    0.45352706227276
               2.22588    0.25215403462269
 p    3 1.00
               3.18649   -0.01429901271425
               1.14427    0.32357228771069
              0.420377    0.74350766110453
 p    1 1.00
              0.142657                   1
 d    1 1.00
                  0.75                   1

[5d]
[7f]
[9g]

[MO]
 Sym= A
 Ene=               0
 Spin= Alpha
 Occup=    1.00000
   1    7.5184994183192e-05
   2    -0.00034885729051725
   3      0.16384306381702
   4    -0.010942021044127
   5    -0.0094224270505223
   6    -0.00081376598383823
   7    -3.7764423459001e-05
   8    0.00059573845570703
   9      0.57149006936709
  10    0.0069958566229251
  11     -0.16199954704432
  12    -0.016756174292021
  13    -0.00059133171903688
  14    0.0046147104205819
  15      0.00808016606794
  16    -0.00039249045162669
  17    0.00065050052089116
  18    -0.0055030714606784
  19    0.0064105861082537
  20    -0.00064715229621932
  21     0.010481649008081
  22    0.00045333769404841
  23    -0.0038736394607771
  24    0.0040152372403449
  25    -0.00050895350208166
  26      0.00709947773733
  27    0.00027008833745477
  28    7.5777896477506e-05
  29    0.00052992825970636
  30    -0.00014129002534532
  31    9.2323927876756e-06
  32    0.00027213202172632
  33    -0.00054554577156561
  34    -8.9414085474181e-05
  35    9.2983600717909e-05
  36    -0.00079355422848786
  37    -0.00017551339896087
  38     0.013874925560909
  39    -9.632693127272e-06
  40      0.00535797586467
  41     0.013843887905228
  42    -0.00037816940352239
  43    0.0015006247440122
  44    -0.00022652642413462
  45    0.00081661465246711
  46    -6.4844589990262e-06
  47    0.00018559883795002
  48    7.7591400250903e-05
  49    -4.4075734632967e-05
  50    0.00031694821866315
  51    -0.024701452626757
  52     0.008998017210866
  53    0.0057771734013404
  54    -7.2647080167589e-05
  55    0.00015225670998096
  56    0.0015336999573213
  57      0.21269915818631
  58    -0.0069343993745096
  59     -0.75946130500138
  60    -0.0059291721103405
  61    0.0025172207437745
  62     0.020373642690621
  63    0.0042678169396227
  64    0.00068194859168183
  65    -0.0052124476677516
  66    0.0017661461094695
  67    0.0073326154037486
  68    0.0023869353105436
  69    -0.0070163552167633
  70    0.00020882997647041
  71    0.00081119503179942
  72    0.0053760955126461
  73    0.0015896761795109
  74    -0.0043268690997448
  75    9.0342675613236e-05
  76    -0.00053783777397605
  77    -0.00037796127884794
  78    5.9885878569674e-05
  79    0.00077148375906487
  80    8.6944985283548e-05
  81    -0.0001164940756871
  82    0.00010328224791682
  83    -5.7560070141725e-05
  84    0.00027080714861409
  85    -0.0006065475958002
  86    -0.0014678621088706
  87    -0.0001483472394972
  88    0.00020638357965085
  89    -0.00026747137210861
  90    0.00039852100007407
  91    -0.00060739927179798
  92    0.00084443880354096
  93    0.0012573873441249
  94    -0.0011410274551648
  95    0.0014859452216397
  96    -9.0191055177782e-05
  97    -0.00054830542169293
  98    0.00021953787274125
  99    6.6959477324871e-05
 100    0.0003402918511229
 101    2.6869288258964e-05
 102    -0.0002568095998459
 103    -0.00020345283989623
 104    0.0036748233915963
 105    0.00020357998340994
 106    -0.00023414166226795
 107    -0.00027969745555599
 108    -0.00059922075257546
 109    0.0006690040634152
 110    0.00083604291298328
 111    -0.00085542756574381
 112    0.0015164045372823
 113    0.0016328262478321
 114    0.00031836627399628
 115    -0.00027520286680509
 116    0.00056803360952386
 117    -0.00016899335432207
 118    -0.00026344178215432
 119    -5.9787356732406e-06
 120    -7.8800037121175e-05
 121    -0.00046111893054826
 122    0.0022090403109076
 123    -2.2172967546522e-05
 124    0.00016106888834842
 125    4.9608478454038e-05
 126    5.2978957536348e-05
 127    -0.00043428287679268
 128    -0.0001214245905683
 129    0.00054678036097909
 130    -0.0010828805080268
 131    -0.00020804446747817
 132    -0.00017839036466581
 133    0.00014035190796019
 134    -7.3090036581614e-05
 135    -0.00044354211786627
 136    -0.00018697911842189
 137    -7.6462690149285e-05
 138    0.00045837023197579
 139    -0.00042125754295083
 140    -0.0045437694213073
 141    8.6552704918427e-05
 142    -0.00046338071075796
 143    -0.00058257984922043
 144    -0.00026381067947446
 145    0.0013245770548582
 146    0.0017152066548175
 147    9.3635524791345e-05
 148    0.0026207438386658
 149    0.0034387248370999
 150    -0.000463268476294
 151    -4.8301484288883e-05
 152    -0.0010143971744919
 153    0.00041080960059683
 154    -1.0307625849993e-06
 155    7.7184002037399e-05
 156    -0.00043537530870264
 157    0.00056257132263019
 158    0.0038197428803585
 159    -0.0003500964864757
 160    0.00031164470814316
 161    -0.00032091731511336
 162    0.0010149708360474
 163    -0.00094044353382365
 164    0.0010898147240221
 165     0.003132443256671
 166    -0.002213767304574
 167    0.0012547718336636
 168    -0.00039632733381741
 169    0.0005496120249589
 170    -0.00034869517672133
 171    0.00017477086612824
 172    -0.00065049202616431
 173    1.0565143134024e-05
 174    -0.00021378081336681
 175    -0.00044247122896154
 176    0.0037844940013452
 177    2.1608869522328e-05
 178    -0.00020648585667137
 179    9.6426145354247e-05
 180    -0.00018803897113129
 181    0.00068911953990074
 182    -0.00015333295702546
 183    0.0020035373706976
 184    0.0022401617767907
 185    -0.00098212516495969
 186    -0.00043998158094082
 187    -7.4764644888131e-05
 188    -0.00043019644245925
 189    -0.00026453657803739
 190    0.00042234856389607
 Sym= A
 Ene=               1
 Spin= Alpha
 Occup=    1.00000
   1    -3.0599993340725e-05
   2    -0.00014115875690835
   3     -0.01191173962336
   4    -0.0010786579075517
   5    -0.0044076767927702
   6    -0.0014724837741469
   7    -3.8447914270267e-05
   8    0.00029070243960872
   9       0.6687830136165
  10     0.013718418414275
  11     -0.10753031494589
  12    -0.015845947943579
  13    -0.00044582965211972
  14    0.0040628664085772
  15    0.0074864954417847
  16    4.8489709169942e-05
  17    -0.00085112418575798
  18    -0.0041374022276746
  19    0.0036323409309822
  20    -0.00050547511748896
  21    0.0070496561504363
  22    0.00047417877288723
  23    -0.0026992890596853
  24    0.0022235153461293
  25    -0.00024181115280806
  26    0.0044777077069016
  27    0.00033992946859605
  28    -9.7096132475726e-05
  29    0.00033536244001296
  30    -9.7593642451844e-05
  31    0.00021997886340157
  32     0.000279979419063
  33    -0.0002162896476503
  34    -9.3295871529991e-05
  35    0.0012270514412363
  36    -8.3140629664032e-05
  37    -0.0054952986961382
  38    -0.0020192697686632
  39    -0.00012619468053777
  40    0.0043317050431473
  41    0.0017784989986453
  42    0.00026162680254933
  43    0.0054541980209094
  44    0.00022235423485523
  45    -0.00055039643399886
  46    -9.4177935123299e-06
  47    9.7349651423447e-05
  48    -3.1496289832975e-05
  49    -0.00011318040363192
  50    -0.0010905027433306
  51      0.54789711717934
  52    -0.015075810478402
  53    0.00039777801819971
  54    0.00017839480443336
  55    -0.0001162860518017
  56    -0.0011530678843568
  57    -0.088037333454967
  58    0.0097765991707737
  59        0.481684063684
  60    0.0031163488803016
  61    -0.001687639534473
  62    -0.013809334082377
  63    -0.0017883097442686
  64    -0.00069579345405564
  65    0.0027313697894803
  66    -0.0015932849511413
  67    -0.0015125993783498
  68    -0.0013671257123738
  69    0.0036761433189656
  70    -0.00029494249320662
  71    -0.0011600687086477
  72    -0.0013274747973429
  73    -0.00097470859137988
  74    0.0026192279661931
  75    -0.00022275453065179
  76    0.00034261366289294
  77    4.8195264167337e-05
  78    -3.2643674403676e-06
  79    -0.000417232778381
  80    -5.5775297249553e-05
  81    0.00016283233456486
  82    -4.6563031964849e-05
  83    -4.6797494697419e-05
  84    9.7238271470907e-05
  85    -0.0009196644339766
  86    0.00090780759043555
  87    -0.00027486833231352
  88    0.00010969491331453
  89    -0.00014134429042535
  90    0.0007432193403326
  91    -0.00037447876764642
  92    0.00047385036128201
  93    0.0011106862509703
  94    -6.9072439102093e-05
  95    5.3874962545948e-05
  96    2.5029059092518e-05
  97    -0.00055900110467759
  98    3.8500109346707e-05
  99    -3.973508582194e-06
 100    0.00034024038080269
 101    4.4382543549665e-05
 102    -0.00033026426250427
 103    3.4549932603322e-05
 104    0.0039166309697398
 105    6.2470027305536e-05
 106    -0.00028499977981327
 107    -0.00040161114203441
 108    -0.0001779701504514
 109    0.00086720133461346
 110    0.0011862911118686
 111    -0.0016347693710741
 112    0.0016545705787506
 113    0.0024806904092841
 114    0.00045756638398804
 115    -0.00034382210091371
 116    0.00067077789177424
 117    -0.00023333590631942
 118    -0.00026268093667684
 119    1.4699184061784e-06
 120    -0.00014367635979185
 121    -0.00046268787220961
 122    0.0028992341831926
 123    -0.00019074878406017
 124    0.00022313145250583
 125    -1.9586822018301e-05
 126    0.00057695998375651
 127    -0.00067386037586258
 128    2.3195162054532e-05
 129    -0.00018800030927819
 130    -0.0017878797668557
 131    0.0004527212770712
 132    -0.0001814888235845
 133    0.00011261372926385
 134    -0.0002110758882973
 135    -0.00056396597477003
 136    -0.00023512790610966
 137    -1.2746369276408e-05
 138    -4.6490354219557e-05
 139    -0.00049897162113627
 140    0.0027481412035024
 141    0.00011177596569243
 142    6.3701600256895e-05
 143    -6.2670080730243e-06
 144    -0.00040660888171708
 145    -0.00021442743267444
 146    -9.0543757724646e-05
 147    0.00077599644162553
 148    -0.00086300914039699
 149    -0.0006393239000238
 150    6.2686040756827e-06
 151    -3.2783502918649e-05
 152    0.00035844625514439
 153    -0.00014638089104078
 154    -5.2927117223524e-05
 155    -6.3713573382341e-05
 156    0.0005619902987346
 157    0.00029016327220967
 158    -0.0060451511377571
 159    0.00060222060384121
 160    -0.00038091778335809
 161    0.00050719800402958
 162    -0.0017181631006666
 163    0.0010588357137515
 164    -0.0015267773046514
 165    -0.0030952370031933
 166    0.0026494849427703
 167    -0.0023498469594877
 168    0.0001994383569701
 169    -0.00067910720463741
 170    0.00048403564184477
 171    -0.00022773430496454
 172    0.0006872758239624
 173    -4.4572355876806e-05
 174    0.00041854404095362
 175    0.00029123952006576
 176    -0.004685963374246
 177    0.00029598435204849
 178    0.00057966047800522
 179    7.8834424866403e-05
 180    -0.00088087883363195
 181    -0.0016488297650155
 182    -0.00032312338135129
 183    -0.0010223538883512
 184    -0.0033904345831759
 185    0.00032872029373091
 186    0.00048452867949044
 187    5.6437375126199e-05
 188    0.00013503977682787
 189    0.0004968385807636
 190    -0.00052495066415525
 Sym= A
 Ene=               2
 Spin= Alpha
 Occup=    1.00000
   1    -3.0653978497291e-05
   2    4.2672970530622e-06
   3     0.011347591276793
   4    0.0017315156008573
   5    0.0058718007253954
   6    0.0006257332446769
   7    -0.0010839307881988
   8    -0.0004593708781666
   9     -0.33924402547835
  10      0.50329040878256
  11      0.20314802918984
  12    0.0092656621873554
  13    -0.012288369615894
  14    -0.0040525110932659
  15    -0.0052609554857269
  16    0.0032414903280073
  17    0.0020062562534419
  18    0.0037156427722799
  19    -0.0033155831634368
  20    0.0024626344574224
  21    -0.0039231620041588
  22    0.00087000262114733
  23    0.0026167282656503
  24    -0.0021690046258607
  25    0.0018152416606489
  26    -0.0024560774433331
  27    0.00083553508530418
  28    -8.4464313752901e-05
  29    -0.000336761738164
  30    0.00020321794887124
  31    -7.1080889210035e-05
  32    -0.00045962339073948
  33    0.00013068650506196
  34    -0.0004325560874274
  35    -0.00015687217901171
  36    0.00033672945769474
  37    -0.00039035841896701
  38    -0.0067330436558094
  39    -0.0023348597191151
  40    -1.2707477135533e-05
  41    -0.0067271116945817
  42    -0.00084287936713296
  43    -0.00041450797914746
  44    1.3760987948259e-05
  45    -1.1607375673348e-05
  46    9.7120928833471e-05
  47    6.1625325817259e-05
  48    0.00038904298573298
  49    -8.5071539128371e-05
  50    -0.00099334436552379
  51      0.70638759877871
  52    -0.014571183961918
  53    -0.0076687870734653
  54    -0.00031875464157332
  55    4.0133056645736e-05
  56    0.00059864099985941
  57      0.13464539645481
  58    -0.0015302893392427
  59      -0.2723044025486
  60    -0.0010867936158054
  61    0.00052921810141149
  62    0.0054388392830999
  63    -0.0017673385309487
  64    -0.0001344033353372
  65    -0.0018016961969764
  66    -0.00055312894951719
  67    -0.00037698418136977
  68    0.0012631133548081
  69     0.000998746083889
  70    -0.00047762607115265
  71    -0.00036686144146108
  72    -0.00014842514302337
  73    0.0010639680082353
  74    0.00074613805159772
  75    -0.00055930089164225
  76    5.8701120337661e-05
  77    -0.0001857353717538
  78    0.00011559856096309
  79    -3.1313836446202e-05
  80    7.4309978010772e-05
  81    0.00028421295791547
  82    -1.0739146145507e-05
  83    1.0942030117462e-05
  84    7.9227996932731e-05
  85    0.00057961984878322
  86    -0.0024372036929425
  87     6.94581949793e-05
  88    -8.9954726396725e-05
  89    -0.00013596143736756
  90    -0.00015897598555327
  91    0.00016937561821889
  92    0.00029823516354033
  93    -0.00067020467913422
  94    0.00062947214364756
  95    0.0017081761249677
  96    -0.00059012910955134
  97    0.00024281547885426
  98    -9.1108899678006e-05
  99    -0.00015311536152118
 100    -0.0002142442152489
 101    -6.0923039741188e-05
 102    0.00045770089263444
 103    -4.5348805855653e-06
 104    -0.0047481697854336
 105    -0.00038811183969661
 106    0.0002335390145221
 107    0.0005210487452224
 108    0.0010743095377028
 109    -0.00072693108541724
 110    -0.001477407899998
 111     0.002572569829483
 112    -0.001121083471856
 113    -0.0033299900305865
 114    -0.00046326781845517
 115    0.00077608631115373
 116    -0.00045181829863846
 117    -0.00020807423421082
 118    0.0002772728891149
 119    4.9025403044724e-05
 120    -0.00025635101051459
 121    0.00041285970570776
 122    0.0016526573112079
 123    0.00021104482740518
 124    0.00029144237603659
 125    -0.00020790790333829
 126    -0.00060536927980833
 127    -0.00086758346038123
 128    0.00059644410339404
 129    -0.0012601707207585
 130    -0.0016789946941608
 131    0.00084847417252327
 132    -7.6420622254654e-05
 133    -0.00027298054221999
 134    -0.00035507443635556
 135    -6.1331044339567e-05
 136    0.00049235612457852
 137    -7.3213011956704e-05
 138    0.00050505587579977
 139    -0.00016715160668246
 140    -0.0039477948067443
 141    2.1585361847798e-05
 142    -0.00046496459172416
 143    -0.0006999940992184
 144    -9.205711990599e-05
 145    0.0013321624519292
 146    0.0020740336223125
 147    -0.00032667855820085
 148    0.0020364057368453
 149    0.0029953216928001
 150    -0.00046496959806447
 151    4.1703385585746e-05
 152    -0.00071748113451689
 153     0.000224623973813
 154    2.3714717705175e-05
 155    -2.7112426157089e-05
 156    0.00019568217377685
 157    -3.155030729228e-05
 158    -0.001240936026597
 159    0.00011199805543015
 160    -0.00015073437448661
 161    0.00030091909669011
 162    -0.00034663266798865
 163    0.00047614203259178
 164    -0.00080727522681247
 165    -0.00039672858227656
 166    0.00026314683334784
 167    -0.001427193169665
 168    -0.00030429882581993
 169    -0.00017403635359173
 170    0.00019001941449886
 171    3.5806936303142e-05
 172    -1.9689401908818e-05
 173    -4.5552974640425e-05
 174    0.00024599432994754
 175    -0.00035108331721914
 176    -0.0010263212009281
 177    8.4156161997686e-05
 178    0.00039359139777805
 179    0.00018710595114366
 180    -0.00031730895414475
 181    -0.0011276423111542
 182    -0.00041288988880553
 183    -6.2350259159544e-06
 184    -0.0014793929501188
 185    -0.0012965587137209
 186    2.5161139471589e-05
 187    -9.9769974952107e-05
 188    -0.00039889493901591
 189    0.00028782940808487
 190    -1.9253296285042e-05
 Sym= A
 Ene=               3
 Spin= Alpha
 Occup=    1.00000
   1    -1.6840934821075e-05
   2    3.9031835638211e-05
   3     0.002506924943826
   4    0.0016814003188656
   5    0.0020733487502061
   6    0.00033184996449389
   7    0.0019387064320698
   8    -0.00043757193954678
   9     -0.18593823835308
  10     -0.86222012104014
  11      0.10204959142172
  12    0.0047838642129425
  13     0.022336844882675
  14    -0.0054898876750241
  15    -0.0022400200190089
  16    -0.0054950091668064
  17    -0.00017298947681248
  18    -0.00054360937224774
  19    -0.0013446652588817
  20    -0.0025260667520044
  21    -0.0038688664531006