[Molden Format]
made by pyscf v[2.0.1]
[Atoms] (AU)
Fe   1   26     3.17068844873907     0.00098706064664     0.12237737881307
Fe   2   26    -3.17068844873907    -0.00098706064664     0.12237737881307
O   3   8     0.00000000000000     0.00000000000000    -0.89004350580623
Cl   4   17     3.53383895113107    -2.07485195383062     3.76228752659000
Cl   5   17     5.54152580550813    -1.85590924879884    -2.78672786652360
Cl   6   17     4.48169216485503     3.92976278472880    -0.95330240907949
Cl   7   17    -3.53383895113107     2.07485195383062     3.76228752659000
Cl   8   17    -5.54152580550813     1.85590924879884    -2.78672786652360
Cl   9   17    -4.48169216485503    -3.92976278472880    -0.95330240907949
[GTO]
1 0
 s    6 1.00
          60923.640643  0.0017552243692958
          9147.8893982   0.013449023284001
          2081.3505927   0.066678874640978
          587.55977067    0.23176348548844
           191.0904399    0.46945550248188
          65.732730112     0.3596824938678
 s    3 1.00
          127.25891928   -0.10723431835929
           14.83091301    0.62971616328466
          6.0653307408    0.44472317896179
 s    3 1.00
           10.44994371   -0.21694289195548
          1.7245228003    0.69457867408393
         0.71772177325    0.43298308896347
 s    1 1.00
        0.091449828308                   1
 s    1 1.00
        0.033706691021                   1
 p    5 1.00
          773.43750995  0.0091440529992506
          182.15149714   0.067887577136571
          57.547272758    0.26167978878504
          20.614988935    0.51088040113251
           7.634855789    0.33235475570224
 p    3 1.00
           3.871932799    0.33193859098144
          1.4924724132     0.5553666555499
         0.56061284958    0.23106034201617
 p    1 1.00
              0.134915                   1
 d    4 1.00
          38.968133419   0.033335938558743
          10.800067078    0.17766212505983
          3.6136457999      0.441281781625
          1.2129967888    0.57089200490673
 d    1 1.00
          0.3652439317                   1
 f    1 1.00
                 1.598                   1

2 0
 s    6 1.00
          60923.640643  0.0017552243692958
          9147.8893982   0.013449023284001
          2081.3505927   0.066678874640978
          587.55977067    0.23176348548844
           191.0904399    0.46945550248188
          65.732730112     0.3596824938678
 s    3 1.00
          127.25891928   -0.10723431835929
           14.83091301    0.62971616328466
          6.0653307408    0.44472317896179
 s    3 1.00
           10.44994371   -0.21694289195548
          1.7245228003    0.69457867408393
         0.71772177325    0.43298308896347
 s    1 1.00
        0.091449828308                   1
 s    1 1.00
        0.033706691021                   1
 p    5 1.00
          773.43750995  0.0091440529992506
          182.15149714   0.067887577136571
          57.547272758    0.26167978878504
          20.614988935    0.51088040113251
           7.634855789    0.33235475570224
 p    3 1.00
           3.871932799    0.33193859098144
          1.4924724132     0.5553666555499
         0.56061284958    0.23106034201617
 p    1 1.00
              0.134915                   1
 d    4 1.00
          38.968133419   0.033335938558743
          10.800067078    0.17766212505983
          3.6136457999      0.441281781625
          1.2129967888    0.57089200490673
 d    1 1.00
          0.3652439317                   1
 f    1 1.00
                 1.598                   1

3 0
 s    5 1.00
          2266.1767785  -0.0053893503921743
          340.87010191   -0.04023472138896
          77.363135167   -0.18008184205526
           21.47964494   -0.46828857657651
          6.6589433124   -0.44692617160187
 s    1 1.00
         0.80975975668                   1
 s    1 1.00
         0.25530772234                   1
 p    3 1.00
          17.721504317   0.062630248763161
           3.863550544    0.33331138482352
          1.0480920883    0.74148638308122
 p    1 1.00
         0.27641544411                   1
 d    1 1.00
                   1.2                   1

4 0
 s    5 1.00
          10449.827566  0.0054265953789407
          1571.7365221   0.040626378128836
          357.12065523    0.18359747852877
          100.25185935    0.47438948768198
          30.812727554    0.43735181104122
 s    3 1.00
          51.923789434  -0.092754154848099
          5.7045760975    0.56380825544207
          2.3508376809    0.50367044629712
 s    1 1.00
         0.44605124672                   1
 s    1 1.00
          0.1684885619                   1
 p    5 1.00
          307.66790569  -0.0088797025588865
          72.102015515  -0.064284071721237
          22.532680262   -0.24288739736006
          7.8991765444   -0.48340836369878
          2.8767268321   -0.38952563875509
 p    1 1.00
         0.77459363955                   1
 p    1 1.00
         0.21037699698                   1
 d    1 1.00
                  0.65                   1

5 0
 s    5 1.00
          10449.827566  0.0054265953789407
          1571.7365221   0.040626378128836
          357.12065523    0.18359747852877
          100.25185935    0.47438948768198
          30.812727554    0.43735181104122
 s    3 1.00
          51.923789434  -0.092754154848099
          5.7045760975    0.56380825544207
          2.3508376809    0.50367044629712
 s    1 1.00
         0.44605124672                   1
 s    1 1.00
          0.1684885619                   1
 p    5 1.00
          307.66790569  -0.0088797025588865
          72.102015515  -0.064284071721237
          22.532680262   -0.24288739736006
          7.8991765444   -0.48340836369878
          2.8767268321   -0.38952563875509
 p    1 1.00
         0.77459363955                   1
 p    1 1.00
         0.21037699698                   1
 d    1 1.00
                  0.65                   1

6 0
 s    5 1.00
          10449.827566  0.0054265953789407
          1571.7365221   0.040626378128836
          357.12065523    0.18359747852877
          100.25185935    0.47438948768198
          30.812727554    0.43735181104122
 s    3 1.00
          51.923789434  -0.092754154848099
          5.7045760975    0.56380825544207
          2.3508376809    0.50367044629712
 s    1 1.00
         0.44605124672                   1
 s    1 1.00
          0.1684885619                   1
 p    5 1.00
          307.66790569  -0.0088797025588865
          72.102015515  -0.064284071721237
          22.532680262   -0.24288739736006
          7.8991765444   -0.48340836369878
          2.8767268321   -0.38952563875509
 p    1 1.00
         0.77459363955                   1
 p    1 1.00
         0.21037699698                   1
 d    1 1.00
                  0.65                   1

7 0
 s    5 1.00
          10449.827566  0.0054265953789407
          1571.7365221   0.040626378128836
          357.12065523    0.18359747852877
          100.25185935    0.47438948768198
          30.812727554    0.43735181104122
 s    3 1.00
          51.923789434  -0.092754154848099
          5.7045760975    0.56380825544207
          2.3508376809    0.50367044629712
 s    1 1.00
         0.44605124672                   1
 s    1 1.00
          0.1684885619                   1
 p    5 1.00
          307.66790569  -0.0088797025588865
          72.102015515  -0.064284071721237
          22.532680262   -0.24288739736006
          7.8991765444   -0.48340836369878
          2.8767268321   -0.38952563875509
 p    1 1.00
         0.77459363955                   1
 p    1 1.00
         0.21037699698                   1
 d    1 1.00
                  0.65                   1

8 0
 s    5 1.00
          10449.827566  0.0054265953789407
          1571.7365221   0.040626378128836
          357.12065523    0.18359747852877
          100.25185935    0.47438948768198
          30.812727554    0.43735181104122
 s    3 1.00
          51.923789434  -0.092754154848099
          5.7045760975    0.56380825544207
          2.3508376809    0.50367044629712
 s    1 1.00
         0.44605124672                   1
 s    1 1.00
          0.1684885619                   1
 p    5 1.00
          307.66790569  -0.0088797025588865
          72.102015515  -0.064284071721237
          22.532680262   -0.24288739736006
          7.8991765444   -0.48340836369878
          2.8767268321   -0.38952563875509
 p    1 1.00
         0.77459363955                   1
 p    1 1.00
         0.21037699698                   1
 d    1 1.00
                  0.65                   1

9 0
 s    5 1.00
          10449.827566  0.0054265953789407
          1571.7365221   0.040626378128836
          357.12065523    0.18359747852877
          100.25185935    0.47438948768198
          30.812727554    0.43735181104122
 s    3 1.00
          51.923789434  -0.092754154848099
          5.7045760975    0.56380825544207
          2.3508376809    0.50367044629712
 s    1 1.00
         0.44605124672                   1
 s    1 1.00
          0.1684885619                   1
 p    5 1.00
          307.66790569  -0.0088797025588865
          72.102015515  -0.064284071721237
          22.532680262   -0.24288739736006
          7.8991765444   -0.48340836369878
          2.8767268321   -0.38952563875509
 p    1 1.00
         0.77459363955                   1
 p    1 1.00
         0.21037699698                   1
 d    1 1.00
                  0.65                   1

[5d]
[7f]
[9g]

[MO]
 Sym= A
 Ene=               0
 Spin= Alpha
 Occup=    1.00000
   1    -0.021778684236804
   2     0.037053564675046
   3     -0.48354940580523
   4       3.5859741504281
   5      -1.1155587016605
   6     0.024946946035759
   7    0.0010077046556799
   8    0.0014431329959686
   9      -0.0858551845013
  10    -0.0034580648683581
  11    -0.0028454975649054
  12     -0.42185762010581
  13    -0.024363953225501
  14     -0.39926403290748
  15    0.0040591874685206
  16    -0.0032905659607704
  17     0.019094520744194
  18    -0.019719781767322
  19    0.0029566486453439
  20     -0.07425671653369
  21     0.097329571299958
  22    -0.088950270526412
  23      0.22538189863176
  24    -0.017065063486326
  25     0.026828925010151
  26     0.017911051674776
  27    -0.020507865519995
  28    -0.024927773229377
  29    0.0053249900014902
  30    -0.036326603958673
  31     -0.00817425645737
  32    -0.0010959488648723
  33    0.0055260298999799
  34    -0.0069197358138774
  35     -0.31021004604903
  36     0.046948014622475
  37    0.0080007863978953
  38    0.00066558930073816
  39     -0.00384371954445
  40    -0.029164961761019
  41    -0.002418105663674
  42     0.013239350722261
  43     -0.28718408428168
  44     0.018844510881499
  45      0.16461196637929
  46    0.0025400274835313
  47    -0.015946319818021
  48    0.00095673272542013
  49    0.0079203670003262
  50    0.00095269356919738
  51     0.011949799233128
  52      0.13097281547651
  53    -0.0035118703254177
  54    -0.097276024719274
  55    -0.0041933393587156
  56    -0.0073514963913635
  57    -0.0034758440274125
  58    -0.0010386370975222
  59      0.01041548644456
  60    -0.00049542081601802
  61    -0.0062074365087282
  62    -0.00086267079666937
  63     0.041751242365631
  64      0.34259220853601
  65      -1.0504430917519
  66      0.18216559945744
  67    -0.0040546841059261
  68     0.043503436963894
  69      -1.1709618538283
  70    0.0058366577197798
  71     -0.23387599629687
  72     0.020632886446931
  73    -0.050959089988326
  74    -0.00038255946548209
  75    -0.051729060374873
  76    -0.0026859299124133
  77    0.0021188045103004
  78     -0.01821177822466
  79      0.17419933956112
  80     -0.43187767154475
  81    -0.0067097538497254
  82     0.013854815779606
  83    -0.026376907315651
  84    -0.031463037879853
  85     0.077286459586336
  86     -0.14934949848541
  87      0.08910030558292
  88     -0.23682948787612
  89      0.47115091845288
  90    -0.064166619245535
  91    -0.025618438449373
  92     0.060540433396246
  93     0.011006553521159
  94     0.012150383513099
  95    0.0021503596803988
  96    -0.019042292982246
  97      0.21032048402579
  98     -0.60132509020423
  99    -0.023325993759182
 100     0.011688382674915
 101      0.01923593602995
 102     -0.12893624752859
 103     0.071254183908949
 104      0.11433650831153
 105      0.43036714335152
 106     -0.27191141188586
 107      -0.4076065635544
 108    -0.0069935067350181
 109     0.074467025085795
 110    -0.052746419509507
 111    -0.024732817957889
 112     0.056660298994073
 113    0.0018276732784326
 114    -0.015645307369373
 115      0.17198845220715
 116     -0.49190036505567
 117    -0.013842552884384
 118    -0.025141009721599
 119     0.006694396755361
 120    -0.072582343018392
 121     -0.14489671606167
 122     0.036023262237851
 123      0.23001870612936
 124      0.51097304504391
 125     -0.10746596523018
 126     0.048223313284851
 127    0.0076240810272265
 128     0.020167755752831
 129     0.054655991522228
 130    -0.066121712556756
 131    -0.00021649322277751
 132    0.0017072165968401
 133    -0.013940316921569
 134     0.041970789902933
 135    -0.0010595605934473
 136    -0.00041048398685382
 137    -3.3310057954735e-05
 138    -0.0076657742253764
 139    -0.0027440793894812
 140    -0.0020802481352429
 141     0.038444743797937
 142     0.011991925741766
 143     0.011443668181178
 144    -0.0020431148009421
 145    -0.0027607580608627
 146    -0.0056339526421957
 147    -0.00017733707172592
 148    -0.00092081767855533
 149    -0.00072161891482431
 150    0.0056445122906993
 151    -0.028960411833855
 152     0.065381647253519
 153    -0.0050821087707544
 154    0.00096362012572199
 155    -0.00057002488462104
 156    -0.023419797884333
 157    0.0016738542091618
 158      0.00304730392974
 159     0.062915126992297
 160    -0.00046125257373255
 161    -0.021908638350002
 162    -0.015012150448619
 163    -0.0012569205248441
 164    0.0085851930201948
 165    0.0090276888928855
 166    -0.0032625716146922
 167    -0.00062995430454233
 168    0.0050857703585043
 169     -0.03424732055668
 170     0.091557504278672
 171    -0.003651539001799
 172    -0.0017279033887908
 173     0.000489371436432
 174    -0.019829184162416
 175    -0.0040232316254608
 176    0.0039135870383209
 177     0.065268309183401
 178     0.012638675867931
 179    -0.013788764151724
 180    -0.0019428204235753
 181    5.6927694130858e-05
 182    -0.0090839218528363
 183    0.0085048640654014
 184      0.00970665303703
 Sym= A
 Ene=               1
 Spin= Alpha
 Occup=    1.00000
   1    -2.149864808078e-05
   2    3.1373395856711e-05
   3    -0.00045825381029345
   4    0.0033488072410526
   5    0.0011226089624788
   6    0.00023332420404915
   7    -0.0016252421460565
   8    -0.00015901761489253
   9    -0.00090134142986011
  10    0.0056178352449534
  11    0.00059178021674342
  12    0.0089893849816105
  13    -0.027072026689973
  14    -0.0051810715464296
  15    -0.0016664963452636
  16    0.00078693925145784
  17    -0.0014515259041246
  18    -0.0013690583923192
  19       1.0683929627943
  20     0.007946577597063
  21    -0.0042352906863092
  22    0.0046921864951955
  23     0.006621074465084
  24     -0.24478136148597
  25    1.2391827839135e-05
  26    0.00049935696511461
  27    -0.00020254901542527
  28    -0.00031768597424577
  29    0.0011403621938917
  30    0.00040406417963409
  31    0.00078888223638697
  32    -6.5761674805916e-06
  33    1.7716626854994e-05
  34    -0.00010044402245548
  35    0.00046051173123453
  36    -0.00068224172453344
  37    -7.234112981581e-06
  38    -0.00085600164775078
  39    6.5777713228365e-05
  40    1.2668058467682e-05
  41    0.0026324553209531
  42    -0.00021778317046187
  43    0.0001980468688507
  44    0.0037102605652209
  45    0.00087654991018777
  46    8.2313038446637e-05
  47    -2.918511580525e-06
  48    0.00078126666129819
  49    9.1255929256905e-05
  50    -0.0023633235880826
  51    -0.0013389261638476
  52    1.0881893367393e-06
  53    -0.0053984283061432
  54    -0.0011256677448373
  55     0.019110267658527
  56    -1.9362739796032e-05
  57    1.8538522576259e-05
  58    -7.0523469802697e-05
  59    -4.4086857440885e-05
  60    -0.00022861045118533
  61    -2.2484409621338e-05
  62    0.00052628999396192
  63    -3.9478807594435e-05
  64    -0.00057653983414646
  65    0.0028118448450308
  66    5.137413388164e-05
  67     0.015929404267556
  68    0.00033297232531781
  69    0.00042647348477542
  70    -0.088567849179539
  71    -0.00069788107481829
  72    -0.00014467627761099
  73    0.00021797659092588
  74    -0.0081201646306007
  75    -3.3388193069577e-05
  76    -0.014740978442175
  77    -8.9396183319807e-05
  78    0.00069123536183695
  79    0.00059246786900978
  80    -0.0077563499193999
  81    0.00063952074344109
  82    -3.2288879671049e-05
  83    0.0005141547000475
  84     0.003974213060704
  85    -0.00067180715486965
  86    0.00014771527609309
  87    -0.011474397345027
  88    0.00083606857225211
  89    0.0094927982483254
  90    -0.0037903250752325
  91    0.0078558629462654
  92    0.0014933057227734
  93    0.00070528242604561
  94    -0.0022101074751111
  95    -0.00023022226155028
  96    0.0021364000352129
  97    0.0040316258196331
  98    -0.029043006138884
  99    0.0012372848463946
 100    -0.00053752102918562
 101    -0.00079639820148401
 102    0.0033163347947489
 103    -0.002685128932299
 104    0.00034519577841091
 105     0.011252164766804
 106    -0.0023555559795524
 107    -0.026918990919872
 108    -0.011044023775033
 109     0.010583352658398
 110    -0.0052569011999288
 111    -0.002462503597462
 112    0.0028310667858454
 113    0.00031408914768479
 114    -0.0026874511458234
 115    -0.0032889354500877
 116     0.027360710710955
 117    -0.0015657774598132
 118    -0.0013769510063864
 119    0.0003491710877791
 120    -0.006046707925136
 121    -0.00086460258958274
 122    -0.00038300098883419
 123     0.004191647991902
 124     -0.02915007427156
 125     0.010986774165733
 126    -0.0043820583741077
 127    0.00018428424399595
 128     -0.00899512744456
 129    -0.015600310383321
 130    -0.0012013190772245
 131    0.00010027966232268
 132    -0.00068718253364725
 133    0.0012737613719679
 134    -0.00030441429949903
 135    0.00019335112084509
 136    9.5405918804569e-05
 137    -0.00071667009143488
 138    0.00046411886377031
 139    0.00023691328587952
 140    -0.0014445497881303
 141    -0.00016725493842023
 142    -0.00025429363277322
 143    -0.0013284783483022
 144    -0.00016152946459233
 145    0.00049463050394883
 146    0.00030190649920354
 147    -0.00018788601541142
 148    0.00010365770554304
 149    0.00010027208543418
 150    -0.00066538535564969
 151    0.00082209706552349
 152    0.00088340694060741
 153    0.00049493853114668
 154    7.4029145832971e-05
 155    0.00052545571623126
 156    0.00089011692319282
 157    0.00028084113023125
 158    0.00097010556146776
 159    0.0013054752841956
 160    -0.00076134124657318
 161    0.0016333603140692
 162    0.0002766793209596
 163    -0.00010624330012657
 164    -0.00036735857652062
 165    -0.00036484131130638
 166    -0.00022624870921528
 167    -0.00018764292528698
 168     0.001209669236665
 169    -0.0014633706061246
 170    -0.00086832567240286
 171    -0.00062466966272205
 172    -0.00092647878451967
 173    -0.00038595945541909
 174    -0.00086330298456412
 175    -0.0014036793756776
 176    -0.00069779128835241
 177    -0.0020791720837743
 178    -0.0033910812830801
 179    -0.0010965271496263
 180    -7.6862813735791e-05
 181    0.00013892052144986
 182    -0.00032664706767338
 183    0.00051722401394816
 184    0.00060480167096406
 Sym= A
 Ene=               2
 Spin= Alpha
 Occup=    1.00000
   1    -0.00032636226413191
   2    0.00080893915738107
   3    -0.0052096091893258
   4     0.016249390545285
   5    0.0036183276377737
   6    -0.00071154997873637
   7    9.5857269477783e-05
   8    0.0010890871543817
   9    0.0024618267160887
  10    -0.00058669224276417
  11    -0.0043676001905981
  12    -0.0095810600108278
  13     0.011863888562249
  14     0.048392994634289
  15    -0.00090020567567729
  16    -0.0022649081186323
  17       1.0707849453109
  18    0.0023226187307546
  19    -0.0014465151869593
  20    0.0049786675820078
  21     0.010121696513645
  22     -0.24833421746801
  23    -0.010991812648416
  24    0.0047065602441845
  25    0.0003805922085187
  26    -0.00022779224357472
  27    -0.00083448082306875
  28    -0.00016619655519134
  29    -0.00092291758788642
  30    -0.00024552854603467
  31    0.00051504187976638
  32     3.35729349846e-05
  33    -8.3329942687108e-05
  34    0.00065650751686429
  35    -0.0016460604207544
  36    -0.00020302449668315
  37    -8.513926612045e-05
  38    -8.8541585504503e-05
  39    0.0001596429971229
  40    0.0003773347698025
  41    0.00018842426163935
  42    -0.00052157533298505
  43    -0.0016521122074139
  44    0.0041949137631562
  45    0.0012512625336082
  46    -0.00016676739638968
  47    0.00014598294866117
  48    0.00019437072275168
  49    0.00020376077222854
  50    -0.0008299679120423
  51    0.0010834922491141
  52    -0.0018465551923371
  53    -0.0010626090884451
  54    -0.0010445569481803
  55    0.0056640295781829
  56    -2.1814133198963e-06
  57    -0.0001166696216925
  58    -9.0053352123703e-06
  59    -9.658506306996e-06
  60    -9.4641404012539e-05
  61    2.3301977435532e-05
  62    0.00020526982889918
  63    -0.00050036893799053
  64    -0.0009682906407663
  65    0.0034435257835023
  66    -0.00088621362819173
  67     0.004102470415142
  68    -0.00074548431702707
  69    0.0053339874118171
  70    -0.025711672480611
  71    0.0029433978373407
  72    -0.00018256833424933
  73    -0.00011756540495417
  74    0.0015970974995555
  75    0.00064296933010064
  76    -0.0063751169828066
  77    -0.0003290343826774
  78    0.0032747355897357
  79    0.0066916403620808
  80    -0.048650446483432
  81    0.00026311740664955
  82    -0.0010942258627062
  83    0.0017461842201767
  84    -0.00013853177725846
  85    -0.0036553342882669
  86    0.0026543485538337
  87    0.0071789655628731
  88    -0.014565505013493
  89     0.039891347717147
  90    -0.019263774250512
  91    -0.0046561662669058
  92     0.014561057936095
  93    0.0011220155216274
  94    0.0018472142213799
  95    0.0001884221216812
  96    -0.0021001982814834
  97    -0.0051969220604683
  98     0.035731000515571
  99    -0.00022842158639816
 100    0.00070935430390124
 101    0.00088163309275479
 102    0.0014853770006807
 103    0.0029815086359559
 104    0.0024458342556592
 105    -0.027453120656722
 106    0.0069583239455169
 107     0.019255160113195
 108    0.0025575018731738
 109    -0.016024107996526
 110     0.005979966392495
 111    0.0088817949464697
 112    -0.0063114216368936
 113    -0.00010967432445614
 114    0.0012253203390077
 115    0.0040888722951568
 116    -0.019891451015015
 117    8.3310141102752e-05
 118    0.00058747414536952
 119    -0.00062361064558085
 120    -0.00077894156361838
 121    0.00022388105732327
 122    -0.0041854532882521
 123     0.009345687961671
 124      0.01835787534393
 125    0.0072162036932253
 126    0.0092725241389852
 127    -0.0011378226129767
 128    -0.0034453590400282
 129    0.0082028362816021
 130    -0.0088210532839822
 131    6.563040374565e-06
 132    -9.7937046292847e-05
 133    0.0012415089123691
 134    -0.0027595014390963
 135    4.0238027855679e-05
 136    0.00016339191798554
 137    -2.8324785465329e-05
 138    0.00049664850934281
 139    0.00033041260301055
 140    -0.00030186840450141
 141    -0.0015062966317275
 142    0.00044529706697894
 143    0.0014269709415632
 144    -0.00015022719487782
 145    0.00015419056879828
 146    1.3541478902774e-05
 147    -0.00021612586961323
 148    1.7236739874332e-05
 149    5.482036734019e-05
 150    -0.000373457745633
 151    0.00072877436610726
 152    -0.00022314622639245
 153    0.00021866634331311
 154    -5.7500106976652e-05
 155    0.00022172003299209
 156    0.00044546791395574
 157    -3.113590420572e-05
 158    0.00050683558099527
 159    0.00035252590812085
 160    -0.00063712668176892
 161    0.00017122012897191
 162    1.369702625623e-05
 163    -8.8120813593829e-05
 164    -0.00013470878378279
 165    -0.00017854078535612
 166    -9.4264887783237e-05
 167    -3.7111799370629e-05
 168    0.00024184294214468
 169    -0.00060624622246085
 170    0.0012151865221965
 171    -0.00014284126299468
 172    -0.00021528687923326
 173    -0.00015999311291554
 174    -0.00025666813157966
 175    -0.00046277446061377
 176    -0.00035730944529945
 177    4.7735630098502e-05
 178    0.00027276166371269
 179    -3.0886172577042e-05
 180    -8.1269582737832e-05
 181    0.0001346635165384
 182    1.1473603075945e-05
 183    4.8244252481276e-05
 184    0.00034596126630399
 Sym= A
 Ene=               3
 Spin= Alpha
 Occup=    1.00000
   1    0.00042514730990003
   2    -0.0014075078694737
   3    0.0045294442480671
   4     0.012858974675616
   5    -0.0045597540926538
   6    0.0013642710447649
   7    0.0011207646138781
   8    -0.00061411481969984
   9    -0.0039857717032774
  10    -0.0043730462910142
  11    0.0024025762979156
  12    -0.028223499956621
  13     0.042547861520484
  14    -0.030879232471596
  15       1.0700311176957
  16    -0.00084048910972816
  17    -0.00093898386042552
  18    -0.0011540339043222
  19    -0.0016256024190952
  20     -0.24859776193735
  21    0.0036310885752992
  22    0.0048228237503822
  23      0.01099783468013
  24    0.0076480787721595
  25    0.00013122254879644
  26    0.00025739204635286
  27    0.00081745577551377
  28    0.00019997516947074
  29    -0.00014873182521063
  30    -0.0015209930363214
  31    -0.00021168031406871
  32    0.00016584094615862
  33    -0.00058096989114101
  34    0.0019485606862368
  35    0.0084158060252212
  36    -0.0062665731249857
  37    -0.0011801129669353
  38    0.00012270586993748
  39    -0.00017482890576625
  40    0.0039516582653245
  41    -0.00039649634014491
  42    0.00045536677371584
  43    0.0016642768072837
  44     0.001833413650245
  45    0.0018005804614673
  46    0.00098122944517813
  47    -0.00085172791736936
  48    0.00023116125321379
  49    -0.00092420692844039
  50    2.7479095139283e-05
  51    -0.0080590656385966
  52    0.0062690579303733
  53    -0.0014611119499462
  54    0.0085839800924504
  55    -0.00092787537200619
  56    -9.6361635423626e-05
  57    -0.00037463275330412
  58    -2.5247756642137e-06
  59    0.00017149166439145
  60    -8.370574986758e-05
  61    0.00019178831806719
  62    0.00011562762925391
  63    0.0021389582899235
  64    0.0091141437424281
  65    -0.060271010112037
  66    -0.0060219550120468
  67    -0.0001108447184011
  68    0.0059153799145445
  69    -0.016690979756474
  70    -0.00097494145118229
  71    -0.052757159710016
  72    -0.00078811522278816
  73    -0.010467791737852
  74    -0.00020299932456831
  75    -0.00054141611409167
  76    -0.00048946830022371
  77    0.00037850725925539
  78    -0.0034260094484323
  79    -0.0050531129960325
  80     0.044463135564569
  81    -0.00080692228796283
  82    0.00091008448005761
  83    -0.0022996343387327
  84    -0.0016626627764554
  85    -0.00096974726354021
  86    -0.0059784495422203
  87    -0.0035720840980854
  88     0.031390787662235
  89    -0.027361192207048
  90    0.0050184763483761
  91    0.0022973190056662
  92    -0.020308377212363
  93    -0.0092527178525454
  94    -0.0026326958215391
  95    9.6913819277301e-05
  96    -0.00096508730147107
  97    -0.0020594409737425
  98     0.014124852563329
  99    -0.00036547205973039
 100    0.00012574484523611
 101    0.00075550170653776
 102    0.00095022735194636
 103    -0.00071329095725652
 104    0.0037635004718114
 105    -0.014974477484137
 106    0.0089658392464741
 107    -0.00070158332590153
 108    -0.007925582809558
 109    -0.004703614219497
 110    0.0026410706324296
 111    0.0028337141830367
 112    -0.0093576995774164
 113    -6.6608334535906e-05
 114    0.00090107638997281
 115    0.0070700660926796
 116    -0.031768323332789
 117    -0.00031255271717342
 118    0.00022428468787901
 119    0.00027304188386957
 120    -0.0016776343287799
 121    -0.0002756077587459
 122    0.0022511763751789
 123     0.011495883993338
 124     0.022075384398273
 125    -0.012143599914891
 126    0.0042969723434581
 127    0.0039002193192289
 128    0.0099493796613896
 129    0.0057853134635651
 130    -0.0061703348048097
 131    0.00012115334340026
 132    -0.00081896252001116
 133    0.0012188091226529
 134    0.00056004471418137
 135    0.00056464366654506
 136    -0.00052292479851496
 137    -0.00066740157020363
 138     0.001360734622816
 139    -0.0010313855419422
 140    -0.0013721285718985
 141    -4.5005777932738e-05
 142    -0.0010782221331131
 143    -0.0010853942786358
 144    0.00019434348181814
 145    0.00044388278857262
 146    0.00014551537878992
 147    -0.00022811940286956
 148    0.00027479682806478
 149    -9.3244585884112e-05
 150    0.00066693535814339
 151    -0.0016161421396903
 152    0.00086336830889752
 153    -0.00013161421633454
 154    0.00021256714150837
 155    -0.00026961278123456
 156    -0.00033307381360057
 157    0.00035508385520058
 158    -0.00031610762959924
 159    -0.00026556523815209
 160    0.00089480197171671
 161    -0.0020181415270925
 162    -0.0004957082511716
 163    -0.00018375695671495
 164    0.00033393300433941
 165    0.00018885808067552
 166    -8.8466526381992e-05
 167    2.1670286949852e-05
 168    -9.9482798794733e-05
 169    -0.00084930213353108
 170    0.0028042059442723
 171    0.00032347666917992
 172    0.00020737561713411
 173    0.00022245940216866
 174    0.00043851992406937
 175    0.0003738443149542
 176    0.00045311727235949
 177    0.0014493046069797
 178    0.00085667263655475