[Molden Format]
made by pyscf v[2.2.1]
[Atoms] (AU)
Fe   1   26     3.17068844873907     0.00098706064664     0.12237737881307
O   2   8     0.00000000000000     0.00000000000000    -0.89004350580623
Fe   3   26    -3.17068844873907    -0.00098706064664     0.12237737881307
Cl   4   17     3.53383895113107    -2.07485195383062     3.76228752659000
Cl   5   17     5.54152580550813    -1.85590924879884    -2.78672786652360
Cl   6   17     4.48169216485503     3.92976278472880    -0.95330240907949
Cl   7   17    -3.53383895113107     2.07485195383062     3.76228752659000
Cl   8   17    -5.54152580550813     1.85590924879884    -2.78672786652360
Cl   9   17    -4.48169216485503    -3.92976278472880    -0.95330240907949
[GTO]
1 0
 s    8 1.00
          300784.84637  0.00024103305017787
          45088.970557  0.0018687382457119
          10262.516317  0.0097155134617046
          2905.2897293   0.039479967013317
          946.11487137    0.12842162832271
          339.87832894    0.30457860754832
          131.94425588    0.43465553776779
          52.111494077    0.22742382379948
 s    4 1.00
          329.48839267  -0.024716645792921
          101.92332739   -0.11669599822835
          16.240462745    0.55229779440271
          6.8840675801    0.53539752037712
 s    2 1.00
          10.470693782   -0.37745869768095
          1.7360039648     1.1722622909796
 s    1 1.00
         0.72577288979                   1
 s    1 1.00
         0.11595528203                   1
 s    1 1.00
        0.041968227746                   1
 p    6 1.00
           1585.395997  0.0027395641750272
          375.38006499   0.022167496552173
          120.31816501    0.10364840341367
          44.788749031    0.29703230666936
          17.829278584    0.47773374381763
          7.2247153786    0.27871749884095
 p    3 1.00
          28.143219756  -0.020268742366329
          3.8743241412    0.38603381535444
          1.5410752281    0.67538247288481
 p    1 1.00
          0.5828561525                   1
 p    1 1.00
              0.134915                   1
 d    4 1.00
          61.996675034   0.019497333982305
          17.873732552    0.11922868100386
          6.2744782934    0.37625274789341
          2.3552337175    0.64997843079553
 d    1 1.00
         0.85432239901                   1
 d    1 1.00
         0.27869254413                   1
 d    1 1.00
                 0.091                   1
 f    1 1.00
                 1.598                   1

2 0
 s    6 1.00
          27032.382631  0.00057227335211155
          4052.3871392  0.0044353233492995
           922.3272271   0.023020107706038
          261.24070989   0.092822490667928
          85.354641351    0.29378500009671
          31.035035245    0.67401604501641
 s    2 1.00
          12.260860728    0.63839937025506
          4.9987076005    0.39534587125718
 s    1 1.00
          1.1703108158                   1
 s    1 1.00
         0.46474740994                   1
 s    1 1.00
         0.18504536357                   1
 p    4 1.00
          63.274954801   0.012018332222616
          14.627049379   0.083005421790056
          4.4501223456    0.31991743925964
          1.5275799647    0.70715542916104
 p    1 1.00
         0.52935117943                   1
 p    1 1.00
          0.1747842127                   1
 d    1 1.00
                 2.314                   1
 d    1 1.00
                 0.645                   1
 f    1 1.00
                 1.428                   1

3 0
 s    8 1.00
          300784.84637  0.00024103305017787
          45088.970557  0.0018687382457119
          10262.516317  0.0097155134617046
          2905.2897293   0.039479967013317
          946.11487137    0.12842162832271
          339.87832894    0.30457860754832
          131.94425588    0.43465553776779
          52.111494077    0.22742382379948
 s    4 1.00
          329.48839267  -0.024716645792921
          101.92332739   -0.11669599822835
          16.240462745    0.55229779440271
          6.8840675801    0.53539752037712
 s    2 1.00
          10.470693782   -0.37745869768095
          1.7360039648     1.1722622909796
 s    1 1.00
         0.72577288979                   1
 s    1 1.00
         0.11595528203                   1
 s    1 1.00
        0.041968227746                   1
 p    6 1.00
           1585.395997  0.0027395641750272
          375.38006499   0.022167496552173
          120.31816501    0.10364840341367
          44.788749031    0.29703230666936
          17.829278584    0.47773374381763
          7.2247153786    0.27871749884095
 p    3 1.00
          28.143219756  -0.020268742366329
          3.8743241412    0.38603381535444
          1.5410752281    0.67538247288481
 p    1 1.00
          0.5828561525                   1
 p    1 1.00
              0.134915                   1
 d    4 1.00
          61.996675034   0.019497333982305
          17.873732552    0.11922868100386
          6.2744782934    0.37625274789341
          2.3552337175    0.64997843079553
 d    1 1.00
         0.85432239901                   1
 d    1 1.00
         0.27869254413                   1
 d    1 1.00
                 0.091                   1
 f    1 1.00
                 1.598                   1

4 0
 s    7 1.00
          69507.990945  0.00051457389646325
           10426.15688  0.0039781344806745
          2373.2334061   0.020456178670619
          671.56420071   0.080148102887582
           218.4199979    0.23454770317658
          77.572249714    0.44543368582255
          28.888815277    0.35466842499038
 s    3 1.00
          127.10527185    0.11293688054705
          39.339582961     0.4837351421006
          7.6740679989     -1.229229738981
 s    2 1.00
           3.874562763    0.67296821635762
          1.8385832573    0.34956051409054
 s    1 1.00
         0.50229057542                   1
 s    1 1.00
          0.1796272342                   1
 p    5 1.00
          666.50423284  0.0033502508198275
           157.6424169   0.026763970407523
          50.262520978      0.123626823608
          18.536078105    0.35845787918981
          7.2940532777    0.61677296353714
 p    1 1.00
          2.9433248995                   1
 p    1 1.00
          1.0404970818                   1
 p    1 1.00
          0.3845641508                   1
 p    1 1.00
         0.13069642732                   1
 d    2 1.00
                  4.61    0.18265835045336
                 1.011    0.91329175226681
 d    1 1.00
                 0.339                   1
 f    1 1.00
                 0.706                   1

5 0
 s    7 1.00
          69507.990945  0.00051457389646325
           10426.15688  0.0039781344806745
          2373.2334061   0.020456178670619
          671.56420071   0.080148102887582
           218.4199979    0.23454770317658
          77.572249714    0.44543368582255
          28.888815277    0.35466842499038
 s    3 1.00
          127.10527185    0.11293688054705
          39.339582961     0.4837351421006
          7.6740679989     -1.229229738981
 s    2 1.00
           3.874562763    0.67296821635762
          1.8385832573    0.34956051409054
 s    1 1.00
         0.50229057542                   1
 s    1 1.00
          0.1796272342                   1
 p    5 1.00
          666.50423284  0.0033502508198275
           157.6424169   0.026763970407523
          50.262520978      0.123626823608
          18.536078105    0.35845787918981
          7.2940532777    0.61677296353714
 p    1 1.00
          2.9433248995                   1
 p    1 1.00
          1.0404970818                   1
 p    1 1.00
          0.3845641508                   1
 p    1 1.00
         0.13069642732                   1
 d    2 1.00
                  4.61    0.18265835045336
                 1.011    0.91329175226681
 d    1 1.00
                 0.339                   1
 f    1 1.00
                 0.706                   1

6 0
 s    7 1.00
          69507.990945  0.00051457389646325
           10426.15688  0.0039781344806745
          2373.2334061   0.020456178670619
          671.56420071   0.080148102887582
           218.4199979    0.23454770317658
          77.572249714    0.44543368582255
          28.888815277    0.35466842499038
 s    3 1.00
          127.10527185    0.11293688054705
          39.339582961     0.4837351421006
          7.6740679989     -1.229229738981
 s    2 1.00
           3.874562763    0.67296821635762
          1.8385832573    0.34956051409054
 s    1 1.00
         0.50229057542                   1
 s    1 1.00
          0.1796272342                   1
 p    5 1.00
          666.50423284  0.0033502508198275
           157.6424169   0.026763970407523
          50.262520978      0.123626823608
          18.536078105    0.35845787918981
          7.2940532777    0.61677296353714
 p    1 1.00
          2.9433248995                   1
 p    1 1.00
          1.0404970818                   1
 p    1 1.00
          0.3845641508                   1
 p    1 1.00
         0.13069642732                   1
 d    2 1.00
                  4.61    0.18265835045336
                 1.011    0.91329175226681
 d    1 1.00
                 0.339                   1
 f    1 1.00
                 0.706                   1

7 0
 s    7 1.00
          69507.990945  0.00051457389646325
           10426.15688  0.0039781344806745
          2373.2334061   0.020456178670619
          671.56420071   0.080148102887582
           218.4199979    0.23454770317658
          77.572249714    0.44543368582255
          28.888815277    0.35466842499038
 s    3 1.00
          127.10527185    0.11293688054705
          39.339582961     0.4837351421006
          7.6740679989     -1.229229738981
 s    2 1.00
           3.874562763    0.67296821635762
          1.8385832573    0.34956051409054
 s    1 1.00
         0.50229057542                   1
 s    1 1.00
          0.1796272342                   1
 p    5 1.00
          666.50423284  0.0033502508198275
           157.6424169   0.026763970407523
          50.262520978      0.123626823608
          18.536078105    0.35845787918981
          7.2940532777    0.61677296353714
 p    1 1.00
          2.9433248995                   1
 p    1 1.00
          1.0404970818                   1
 p    1 1.00
          0.3845641508                   1
 p    1 1.00
         0.13069642732                   1
 d    2 1.00
                  4.61    0.18265835045336
                 1.011    0.91329175226681
 d    1 1.00
                 0.339                   1
 f    1 1.00
                 0.706                   1

8 0
 s    7 1.00
          69507.990945  0.00051457389646325
           10426.15688  0.0039781344806745
          2373.2334061   0.020456178670619
          671.56420071   0.080148102887582
           218.4199979    0.23454770317658
          77.572249714    0.44543368582255
          28.888815277    0.35466842499038
 s    3 1.00
          127.10527185    0.11293688054705
          39.339582961     0.4837351421006
          7.6740679989     -1.229229738981
 s    2 1.00
           3.874562763    0.67296821635762
          1.8385832573    0.34956051409054
 s    1 1.00
         0.50229057542                   1
 s    1 1.00
          0.1796272342                   1
 p    5 1.00
          666.50423284  0.0033502508198275
           157.6424169   0.026763970407523
          50.262520978      0.123626823608
          18.536078105    0.35845787918981
          7.2940532777    0.61677296353714
 p    1 1.00
          2.9433248995                   1
 p    1 1.00
          1.0404970818                   1
 p    1 1.00
          0.3845641508                   1
 p    1 1.00
         0.13069642732                   1
 d    2 1.00
                  4.61    0.18265835045336
                 1.011    0.91329175226681
 d    1 1.00
                 0.339                   1
 f    1 1.00
                 0.706                   1

9 0
 s    7 1.00
          69507.990945  0.00051457389646325
           10426.15688  0.0039781344806745
          2373.2334061   0.020456178670619
          671.56420071   0.080148102887582
           218.4199979    0.23454770317658
          77.572249714    0.44543368582255
          28.888815277    0.35466842499038
 s    3 1.00
          127.10527185    0.11293688054705
          39.339582961     0.4837351421006
          7.6740679989     -1.229229738981
 s    2 1.00
           3.874562763    0.67296821635762
          1.8385832573    0.34956051409054
 s    1 1.00
         0.50229057542                   1
 s    1 1.00
          0.1796272342                   1
 p    5 1.00
          666.50423284  0.0033502508198275
           157.6424169   0.026763970407523
          50.262520978      0.123626823608
          18.536078105    0.35845787918981
          7.2940532777    0.61677296353714
 p    1 1.00
          2.9433248995                   1
 p    1 1.00
          1.0404970818                   1
 p    1 1.00
          0.3845641508                   1
 p    1 1.00
         0.13069642732                   1
 d    2 1.00
                  4.61    0.18265835045336
                 1.011    0.91329175226681
 d    1 1.00
                 0.339                   1
 f    1 1.00
                 0.706                   1

[5d]
[7f]
[9g]

[MO]
 Sym= A
 Ene=               0
 Spin= Alpha
 Occup=    1.00000
   1    0.0017468618705052
   2    -0.0047455399851776
   3     0.015327057957789
   4     0.007850276961103
   5    -0.032284639734286
   6    0.0033965438311531
   7    0.0025512800732623
   8    0.0013569246830477
   9    -0.0067401794468366
  10    -0.0073695009739466
  11    -0.0039421891813528
  12     0.019657353644343
  13    0.00099741384271048
  14    1.7101936263524e-05
  15    -0.0024769885257968
  16    0.0013816953534381
  17    0.0036409512817729
  18    -0.020395173446931
  19      0.16406619286813
  20     -0.28564453682101
  21     -0.42877688422017
  22      0.32654685812437
  23      0.13730149008551
  24      0.10560786245585
  25     -0.18296390764662
  26     -0.27557943528407
  27      0.20907490606817
  28     0.087878065891029
  29      0.03653062251341
  30    -0.067201428191063
  31    -0.099455686823784
  32      0.07931168545271
  33     0.032896866240627
  34    -0.0042765771949163
  35    0.0048467716642915
  36    0.0063038535200283
  37    -0.0028880979160918
  38    -0.0029512625783767
  39    0.0008824316600741
  40    -0.00081975935306983
  41    -0.00099773907378743
  42    0.00011993411597796
  43    -0.00056263413108059
  44    0.00087658105573317
  45    0.00018124060723308
  46    3.275833787982e-05
  47    3.3243487024468e-05
  48    0.00044497077658487
  49    0.0008236719702179
  50    -0.011040154645556
  51    -0.00020356401978276
  52    -0.001098049603397
  53    -0.024836298408932
  54    -0.0014110907055539
  55    -0.0010458838738303
  56    -0.027008530952271
  57     0.002409610079442
  58    -0.0016748068731663
  59    -0.025818015184531
  60    0.00029579482631532
  61    0.00059033976953346
  62    -0.00017713486339372
  63    0.00020778682961868
  64    7.1893447604933e-05
  65    -0.0003572653486003
  66    0.00097542108532365
  67    -0.00048964327041829
  68    -0.00055987226385679
  69    0.00019936922229025
  70    0.00015621224944759
  71    0.00050341749375852
  72    -0.00011940598098189
  73    -5.8994157770137e-05
  74    -0.00016721999564909
  75    3.4312483174169e-05
  76    7.3404713688748e-05
  77    0.00029336183157505
  78    -0.00079777061046276
  79    0.0025660774655546
  80    0.00094270779626635
  81    0.0015146235050776
  82    0.00065546565465504
  83    -0.0014435884656591
  84    1.2484087695289e-05
  85    -0.00073306251739709
  86    0.0041354624575084
  87    -4.2260098823388e-05
  88    0.0021035849138229
  89    5.282898012268e-05
  90    3.4568445158427e-05
  91    0.00012414066178516
  92    0.0021941265003313
  93    -0.00015294946928205
  94    -0.005160033268211
  95    0.0001271996244337
  96    -8.8609653088198e-05
  97    -5.903825299785e-05
  98    -0.00033017872049548
  99    6.0957376858852e-05
 100    0.00058605280571949
 101    -0.00016327916755936
 102    -5.978341179194e-06
 103    -0.0007484322634566
 104    2.4769825953307e-05
 105    0.0001161856636431
 106    -0.0024933618926567
 107    0.00035178959236048
 108    0.00030810642883203
 109    0.00013967988799085
 110    0.00024280492813638
 111    0.0022267250725827
 112    -0.0022465437448238
 113    0.0026767042144635
 114    -0.0014433605470756
 115    8.4902916391482e-05
 116    0.00027332984963991
 117    2.868766422322e-05
 118    -0.00014819477840679
 119    1.5766052837714e-05
 120    -0.00014438048611852
 121    -1.7002387152824e-05
 122    -0.0020303110741875
 123    -0.0017219279876753
 124     0.012088733230374
 125    -0.017312890541685
 126    -0.010263383678085
 127    -0.010425121738569
 128    0.0070046290489662
 129    -0.011645167886067
 130    -0.0054031483214031
 131    0.0036608375783269
 132    -0.0060977472708263
 133      0.01380654639795
 134    -0.0093739233511842
 135     0.015694288851339
 136     0.028591598119276
 137    -0.019983090051461
 138     0.033015602490506
 139     0.023185558898955
 140    -0.015829869097164
 141     0.027880663062618
 142    0.00083754537861156
 143    0.0013037729325733
 144    -0.0012079493134677
 145    0.00012043231941959
 146    -0.00079310259161242
 147    -0.00020456581472215
 148    0.0012199468129171
 149    -0.00061527423276788
 150    0.00075839469580623
 151    -0.00089940742607037
 152    -0.00017342859211756
 153    -0.00057227272086797
 154    0.0011714101744784
 155    0.00032414403501989
 156    0.00065723100379672
 157    0.00021328488890369
 158    8.6207088597151e-05
 159    0.00056247207605666
 160    0.00050094117508678
 161    -0.0033054659837365
 162    0.0040870647527104
 163    0.0050039831112199
 164     0.010943062423649
 165     0.016550976140902
 166    -0.0073120005085947
 167    0.0055927072966251
 168    0.0084835406421533
 169    -0.0037327293423958
 170    -0.014075582129155
 171    -0.021552030572638
 172    0.0093509306648501
 173    -0.030396184676466
 174    -0.045553740801422
 175       0.0203132714334
 176    -0.025469905598571
 177    -0.036921474030123
 178     0.017686099651777
 179    -0.00084304761170191
 180    0.0014210940119453
 181    0.0015739955367472
 182    -0.0019054809566445
 183    -0.0010247953307503
 184    8.4352327588504e-05
 185    0.00013610685845469
 186    0.0012202674144822
 187    -0.0012427521022445
 188    -0.0012863911547194
 189    -0.00015594129954254
 190    0.00029980351862711
 191    0.00019615892564491
 192    -0.00076843165490137
 193    -0.00036678276136012
 194    0.00057333859871905
 195    -5.2051479521146e-05
 196    0.00047200348835168
 197    0.00045056384760338
 198    -0.0027291207135934
 199    0.0024650244040143
 200    0.0071110536050836
 201    0.0084713429918176
 202    -0.0037022485473304
 203    -0.017955651517637
 204    0.0043005519347606
 205    -0.0020037846507204
 206    -0.009164695541572
 207    -0.010797971923078
 208    0.0053676418808867
 209      0.02305872405471
 210    -0.023536513158231
 211    0.0094123367645723
 212     0.049532111722427
 213     -0.01923680567341
 214    0.0062854174935901
 215     0.041213720154366
 216    -0.0010395564642852
 217    0.0010981508858304
 218    0.0018500727876762
 219    -0.0011950936510322
 220    -0.0007183202690314
 221    -0.00091632964304793
 222    0.0006700820907267
 223    0.00030721518525222
 224    -0.0019797288284286
 225    0.00042792514521501
 226    0.00016168543744208
 227    0.00011319160314146
 228    0.00057945376515025
 229    8.3950480236486e-05
 230    -0.00030788614385552
 231    0.00014895963178955
 232    0.00052495214847807
 233    0.0001859088290884
 234    0.00018014070658218
 235    -0.0011025249489414
 236    0.0012696881105753
 237    0.0036758685481272
 238    -0.0011765384335187
 239    0.00035511965895345
 240    0.00050471347564645
 241    -0.00061334222855039
 242    0.00018747131952232
 243    0.00024556426069523
 244    0.0015850484467286
 245    -0.0004878595693659
 246    -0.00061143449454405
 247    0.0031526046628177
 248    -0.0010591740524098
 249    -0.0015558750042461
 250    0.0024473285855881
 251    -0.001012942919682
 252    -0.0027043267511596
 253    -2.7871819172451e-05
 254    0.00014591513731047
 255    -4.3629601809915e-05
 256    -5.1991451854877e-05
 257    8.7290927637675e-05
 258    0.00037279551545215
 259    9.4864088806506e-05
 260    -3.9132604459869e-05
 261    -0.00021632221697135
 262    0.00028279827878338
 263    -2.6151916711083e-05
 264    5.093874164758e-05
 265    -5.9428063204264e-06
 266    2.6505982409135e-05
 267    1.5642264441253e-05
 268    -7.2082988110661e-06
 269    2.7844246318403e-05
 270    -4.7724912920031e-05
 271    -6.5777653285339e-05
 272    0.00027357302067862
 273    4.7148579299265e-05
 274    -0.0035075728050339
 275    0.00057081491481865
 276    -6.330152955204e-05
 277    -0.00037145511168228
 278    0.00025000837497131
 279    -3.9503199488168e-05
 280    -0.00018618848795815
 281    -0.0005860842073801
 282    0.00011871946294901
 283    0.00045294674170382
 284    -0.0019716162580073
 285    0.00013687395201194
 286    0.00096262482673438
 287    -0.0011841673306517
 288    0.0009565656493061
 289    0.0002979736996458
 290    -8.4756201890896e-05
 291    -4.315623791256e-05
 292    -7.4732779081836e-06
 293    6.1691378421079e-05
 294    -4.1284742110502e-05
 295    0.00021116218564314
 296    0.00010405210056899
 297    -7.3455983540338e-05
 298    -3.3256875058013e-06
 299    -4.9731342909756e-05
 300    2.5718340587538e-05
 301    4.7947770516528e-05
 302    -4.9130321784233e-05
 303    -3.0679030251278e-05
 304    -3.673909045896e-05
 305    -1.9827578609975e-05
 306    2.8890611907599e-08
 307    1.011950204978e-06
 308    9.1421211044161e-06
 309    2.3688598835345e-06
 310    -0.00022827420746408
 311    0.0014789693932324
 312    -4.849486371251e-05
 313    -1.4971410276009e-05
 314    -0.00048496105344512
 315    -2.380722524456e-05
 316    -1.6538838735871e-06
 317    -0.00023380311930089
 318    5.4752951253207e-05
 319    -1.5491289357417e-05
 320    0.00057063529356598
 321    0.00019047633820321
 322    0.00014264232946387
 323    0.0014793127392837
 324    0.00014447300781658
 325    0.00013230512023626
 326    0.0010821365166335
 327    -5.0249397436733e-05
 328    8.7926309106229e-06
 329    -6.3713518971688e-05
 330    -8.4408133328132e-06
 331    2.4513425391163e-05
 332    0.00013154900123075
 333    -0.00038298876638344
 334    7.3060588633818e-05
 335    -3.6570796760902e-05
 336    -8.5248043140912e-05
 337    1.2305505149456e-05
 338    9.908506902918e-07
 339    2.1640449487533e-05
 340    -5.2079414370175e-05
 341    -3.9807282527547e-05
 342    1.153687920446e-05
 343    -2.4639488894302e-05
 Sym= A
 Ene=               1
 Spin= Alpha
 Occup=    1.00000
   1    0.0008689757721117
   2    -0.002359766800663
   3    0.0076286278240978
   4    0.0040179632462777
   5    -0.019080278862757
   6    0.0013062046998601
   7    0.0012699470861861
   8    -0.0095246106796499
   9    -0.0039591882072594
  10    -0.003672270776559
  11     0.027806828249019
  12     0.011582591233045
  13    0.00062669610377383
  14    -0.0044707827251632
  15    -0.0023831356124978
  16    0.0018415052105076
  17     -0.02616830348387
  18    -0.010975920843192
  19     -0.45426999464144
  20    -0.059679734407287
  21     -0.33255263422718
  22     -0.14555881420196
  23      -0.2762982297566
  24     -0.29099840319417
  25    -0.038161917555355
  26     -0.21342148284094
  27    -0.093531747589354
  28     -0.17655755359244
  29     -0.10598516242687
  30    -0.013700044891217
  31    -0.076621792201357
  32    -0.032440702868993
  33    -0.065465750645442
  34    0.0052789801991784
  35    -0.00067935677348935
  36    0.0041344588083623
  37    0.0025504160019458
  38    0.0031144665287132
  39    -0.00078169568287834
  40    -0.0011818305315764
  41    -0.00063420612385848
  42    -0.00064585395836528
  43    -0.0012610987267301
  44    -4.1972825173741e-05
  45    -0.0011291510074033
  46    -0.00040445090540909
  47    -0.0010218686522726
  48    0.0018738032745867
  49     0.003319965204418
  50    -0.0047925158019353
  51    0.0032855166689364
  52    -0.036390836469765
  53    -0.023957676788995
  54    0.0031040619162393
  55    -0.038995966639387
  56    -0.025696401988546
  57     0.008303767794686
  58    -0.034017134536655
  59    -0.024859351920493
  60    9.8009426796265e-05
  61    0.00060787097182491
  62    0.00016299794064034
  63    -0.00015287610560022
  64    0.00092377616831715
  65    -0.00094677666946927
  66    0.0014084165697474
  67    -0.0014955944061102
  68    -0.00086742246920246
  69    0.0015994955323188
  70    -8.0605610664914e-05
  71    0.00026481322164812
  72    -7.5270858002765e-05
  73    -2.5083281074304e-05
  74    0.00033582926149392
  75    -0.00018821943846161
  76    0.0001578104905949
  77    0.00039715542387872
  78    -0.0011177608065995
  79    0.0034122566297765
  80    0.0017366630260835
  81    0.00056584522315468
  82    0.00042007008920047
  83    -0.0017663707973739
  84    -0.0015678411494268
  85    -0.00044226560692644
  86     0.005091036953974
  87     0.004479525273989
  88    0.0012242023185489
  89    2.4418444016576e-05
  90    0.00029693508653914
  91    0.00038701822956541
  92    0.0014622021891106
  93    -0.0068248487272475
  94    -0.0056049120501485
  95    0.00020563625464117
  96    0.00023704628082323
  97    -8.8209664662176e-05
  98    -0.0005101420762769
  99    -6.2102002504621e-05
 100    0.00069508449278093
 101    0.00017096395851297
 102    0.00015268026308197
 103    -0.00091162434922723
 104    -0.00074814836745419
 105    0.00056498994026503
 106    -0.0019882031685559
 107    0.00089802568365737
 108    0.00040083126337656
 109    -0.0029346285257829
 110    -0.0021776287546144
 111    -0.0005344993147497
 112    -0.0014043105076731
 113    0.00036802917206162
 114    0.0016283965789933
 115    5.1366418341225e-05
 116    0.00026983669860083
 117    0.00010978387694026
 118    -0.00014437961973353
 119    0.00024876129659513
 120    -0.00016904247111882
 121    -0.00047531625042004
 122    0.0001747815844025
 123    0.00017464392503305
 124    -0.00099531712923604
 125    0.00054984554999445
 126    0.0037878825915046
 127    0.0030126355155395
 128    -0.018986948156354
 129    -0.0093058849318489
 130    0.0015415687995396
 131    -0.0097125638065478
 132    -0.0048771307905792
 133    -0.0039205479268932
 134     0.024563748075227
 135     0.012604340167625
 136    -0.0083454764969877
 137      0.05254064054825
 138     0.024955303848322
 139    -0.0067169993311726
 140     0.045062939328276
 141     0.020947981561891
 142    0.0023900640843904
 143    -0.00033683679204346
 144    0.0015853502337443
 145    0.0013640833858196
 146    0.00037049941007968
 147    0.0022285911350967
 148    -0.00012119690818021
 149    0.00020421439660098
 150    0.00063426445319318
 151    0.00032688317935755
 152    -0.001115993087462
 153    4.9346822415781e-05
 154    0.00017917778781133
 155    -0.00050986084514285
 156    -0.0001143087551381
 157    -6.5883666786767e-05
 158    0.00022560109547359
 159    0.0012573030175865
 160    0.0010710843519281
 161    -0.0074893952604817
 162     0.010749399282639
 163    0.0069934242305611
 164     0.013989327710505
 165    -0.011405495147763
 166    0.0063837904395682
 167    0.0071939072920744
 168    -0.0058854958826148
 169    0.0032525948256274
 170    -0.018235058953425
 171     0.015005795034813
 172    -0.0082297828022198
 173    -0.039031311548107
 174     0.031366433214707
 175     -0.01711819097175
 176    -0.032169948552346
 177     0.028637645731519
 178    -0.013890761689039
 179    0.0020738192204392
 180    0.00031248871006182
 181    -0.00056733819367859
 182    -0.00023723683024608
 183    0.0016198526648368
 184    0.0015604463705991
 185    -0.00059343974941922
 186    0.00054579244541448
 187    -0.00065810637298384
 188    0.00042323502027511
 189    0.00068470539690843
 190    -0.00033259786108439
 191    0.0002023948517603
 192    -0.00023459673129729
 193    0.0004529764531328
 194    -4.0341276072182e-05
 195    -0.00042457497513495
 196    -0.0019615382946277
 197    -0.0016634835965688
 198     0.011664588000539
 199    -0.016483173976662
 200      -0.0111032491032
 201    -0.011764177847785
 202      -0.0118521867625
 203    -0.0022629890905258
 204    -0.006065976796024
 205    -0.0061952647001686
 206    -0.0011495077643483
 207     0.015374273054718
 208     0.015788582807761
 209    0.0029903035187372
 210      0.03280952792552
 211     0.033533890573746
 212    0.0055653465888807
 213     0.025776169835427
 214     0.029349833213061
 215    0.0063310529399039
 216    -0.0010831228433949
 217    -0.00023784913592002
 218    0.00043251989984694
 219    -0.00041125707051209
 220    0.0013683669597751
 221    -0.00046750187077462
 222    -0.00015173151174706
 223    0.00055570716578607
 224    0.0010341195715703
 225    0.00070845132923929
 226    -0.00031049129864478
 227    0.00024772109872326
 228    0.00051694782953492
 229    -0.00011707089497072
 230    0.00037446664950925
 231    0.00067487900684616
 232    -1.6782514282531e-07
 233    0.00022663006517503
 234    0.00021962692078795
 235    -0.0013416469701921
 236    0.0013746748330855
 237    0.0054218294696684
 238    -0.0014801548669627
 239    -5.2170382901142e-06
 240    0.0011790576371738
 241    -0.00071748234994228
 242    -2.9984919165852e-05
 243    0.00056166159182008
 244    0.0017803230118325
 245    0.00011227621798642
 246    -0.0013801251273527
 247    0.0043966515090503
 248    -0.00028373229152089
 249    -0.003796542485111
 250    0.0030386589425762
 251    -0.0010456929072389
 252    -0.004234675902056
 253    -0.00012755721003115
 254    0.00024599061714064