[Molden Format]
made by pyscf v[2.2.1]
[Atoms] (AU)
Fe   1   26    10.35569916261654     2.17318504324982   -15.17450078025744
S   2   16     7.65339080448850    -1.15273293598469   -16.53510358994429
S   3   16    14.15404867299231     0.79368497231733   -17.08312416606816
Fe   4   26    11.41394579237297    -2.30546587196938   -18.19806257956155
S   5   16    10.33680190137089     2.36215765570633   -10.54467177507304
S   6   16     8.74943195673624     6.19830168857340   -16.57289811243559
S   7   16    10.86592521624911    -2.83458918684759   -22.77119980100900
S   8   16    12.96352121451632    -6.44396608476686   -16.74297346364645
C   9   6    10.41239094635349     8.40928125431453   -14.19184319548361
H   10   1    12.26432254842725     9.12737718164925   -14.96663090655529
H   11   1     9.20296622663185    10.07224024393178   -13.70051440309670
H   12   1    10.80923343251215     7.25654831832984   -12.45329516088376
C   13   6     6.80301404843422     3.21253441176060   -10.46908273009044
H   14   1     5.68807563494084     1.51178089965205   -10.99820604496866
H   15   1     6.19830168857340     3.89283581660403    -8.54156208303408
H   16   1     6.46286334601251     4.68652078892135   -11.92417184600554
C   17   6     9.84547310898397    -7.97464424566456   -17.87680913838549
H   18   1     9.63760323528181    -7.57780175950590   -19.93661061416140
H   19   1     9.84547310898397   -10.05334298268613   -17.49886391347247
H   20   1     8.25810316434932    -7.02978118338203   -16.87525429236600
C   21   6    14.41861033043142    -3.49599333044536   -23.13024776467636
H   22   1    14.92883638406399    -3.89283581660403   -25.15225471796098
H   23   1    15.49575422143351    -1.81413707958246   -22.41215183734163
H   24   1    14.90993912281834    -5.14005505881697   -21.90192578370907
[GTO]
1 0
 s    6 1.00
          60923.640643  0.0017552243692958
          9147.8893982   0.013449023284001
          2081.3505927   0.066678874640978
          587.55977067    0.23176348548844
           191.0904399    0.46945550248188
          65.732730112     0.3596824938678
 s    3 1.00
          127.25891928   -0.10723431835929
           14.83091301    0.62971616328466
          6.0653307408    0.44472317896179
 s    3 1.00
           10.44994371   -0.21694289195548
          1.7245228003    0.69457867408393
         0.71772177325    0.43298308896347
 s    1 1.00
        0.091449828308                   1
 s    1 1.00
        0.033706691021                   1
 p    5 1.00
          773.43750995  0.0091440529992506
          182.15149714   0.067887577136571
          57.547272758    0.26167978878504
          20.614988935    0.51088040113251
           7.634855789    0.33235475570224
 p    3 1.00
           3.871932799    0.33193859098144
          1.4924724132     0.5553666555499
         0.56061284958    0.23106034201617
 p    1 1.00
              0.134915                   1
 d    4 1.00
          38.968133419   0.033335938558743
          10.800067078    0.17766212505983
          3.6136457999      0.441281781625
          1.2129967888    0.57089200490673
 d    1 1.00
          0.3652439317                   1
 f    1 1.00
                 1.598                   1

2 0
 s    5 1.00
           9184.930301  -0.0054729466134731
          1381.5105503  -0.040954402155135
           313.8714758   -0.18475828956188
          88.053870623   -0.47567280643953
          27.039914905   -0.43495153584169
 s    3 1.00
          45.648731303  -0.091904045808942
          4.9664522326    0.55698777214497
          2.0116242047     0.5111546829846
 s    1 1.00
         0.35661077013                   1
 s    1 1.00
         0.13507221477                   1
 p    5 1.00
          261.98233439  -0.009183054659266
          61.306894736   -0.06590222652599
          19.103729887   -0.24587784518735
          6.6567720378    -0.4823147107602
          2.3959635161   -0.38956314351423
 p    1 1.00
         0.61776161679                   1
 p    1 1.00
         0.16993376871                   1
 d    1 1.00
                  0.55                   1

3 0
 s    5 1.00
           9184.930301  -0.0054729466134731
          1381.5105503  -0.040954402155135
           313.8714758   -0.18475828956188
          88.053870623   -0.47567280643953
          27.039914905   -0.43495153584169
 s    3 1.00
          45.648731303  -0.091904045808942
          4.9664522326    0.55698777214497
          2.0116242047     0.5111546829846
 s    1 1.00
         0.35661077013                   1
 s    1 1.00
         0.13507221477                   1
 p    5 1.00
          261.98233439  -0.009183054659266
          61.306894736   -0.06590222652599
          19.103729887   -0.24587784518735
          6.6567720378    -0.4823147107602
          2.3959635161   -0.38956314351423
 p    1 1.00
         0.61776161679                   1
 p    1 1.00
         0.16993376871                   1
 d    1 1.00
                  0.55                   1

4 0
 s    6 1.00
          60923.640643  0.0017552243692958
          9147.8893982   0.013449023284001
          2081.3505927   0.066678874640978
          587.55977067    0.23176348548844
           191.0904399    0.46945550248188
          65.732730112     0.3596824938678
 s    3 1.00
          127.25891928   -0.10723431835929
           14.83091301    0.62971616328466
          6.0653307408    0.44472317896179
 s    3 1.00
           10.44994371   -0.21694289195548
          1.7245228003    0.69457867408393
         0.71772177325    0.43298308896347
 s    1 1.00
        0.091449828308                   1
 s    1 1.00
        0.033706691021                   1
 p    5 1.00
          773.43750995  0.0091440529992506
          182.15149714   0.067887577136571
          57.547272758    0.26167978878504
          20.614988935    0.51088040113251
           7.634855789    0.33235475570224
 p    3 1.00
           3.871932799    0.33193859098144
          1.4924724132     0.5553666555499
         0.56061284958    0.23106034201617
 p    1 1.00
              0.134915                   1
 d    4 1.00
          38.968133419   0.033335938558743
          10.800067078    0.17766212505983
          3.6136457999      0.441281781625
          1.2129967888    0.57089200490673
 d    1 1.00
          0.3652439317                   1
 f    1 1.00
                 1.598                   1

5 0
 s    5 1.00
           9184.930301  -0.0054729466134731
          1381.5105503  -0.040954402155135
           313.8714758   -0.18475828956188
          88.053870623   -0.47567280643953
          27.039914905   -0.43495153584169
 s    3 1.00
          45.648731303  -0.091904045808942
          4.9664522326    0.55698777214497
          2.0116242047     0.5111546829846
 s    1 1.00
         0.35661077013                   1
 s    1 1.00
         0.13507221477                   1
 p    5 1.00
          261.98233439  -0.009183054659266
          61.306894736   -0.06590222652599
          19.103729887   -0.24587784518735
          6.6567720378    -0.4823147107602
          2.3959635161   -0.38956314351423
 p    1 1.00
         0.61776161679                   1
 p    1 1.00
         0.16993376871                   1
 d    1 1.00
                  0.55                   1

6 0
 s    5 1.00
           9184.930301  -0.0054729466134731
          1381.5105503  -0.040954402155135
           313.8714758   -0.18475828956188
          88.053870623   -0.47567280643953
          27.039914905   -0.43495153584169
 s    3 1.00
          45.648731303  -0.091904045808942
          4.9664522326    0.55698777214497
          2.0116242047     0.5111546829846
 s    1 1.00
         0.35661077013                   1
 s    1 1.00
         0.13507221477                   1
 p    5 1.00
          261.98233439  -0.009183054659266
          61.306894736   -0.06590222652599
          19.103729887   -0.24587784518735
          6.6567720378    -0.4823147107602
          2.3959635161   -0.38956314351423
 p    1 1.00
         0.61776161679                   1
 p    1 1.00
         0.16993376871                   1
 d    1 1.00
                  0.55                   1

7 0
 s    5 1.00
           9184.930301  -0.0054729466134731
          1381.5105503  -0.040954402155135
           313.8714758   -0.18475828956188
          88.053870623   -0.47567280643953
          27.039914905   -0.43495153584169
 s    3 1.00
          45.648731303  -0.091904045808942
          4.9664522326    0.55698777214497
          2.0116242047     0.5111546829846
 s    1 1.00
         0.35661077013                   1
 s    1 1.00
         0.13507221477                   1
 p    5 1.00
          261.98233439  -0.009183054659266
          61.306894736   -0.06590222652599
          19.103729887   -0.24587784518735
          6.6567720378    -0.4823147107602
          2.3959635161   -0.38956314351423
 p    1 1.00
         0.61776161679                   1
 p    1 1.00
         0.16993376871                   1
 d    1 1.00
                  0.55                   1

8 0
 s    5 1.00
           9184.930301  -0.0054729466134731
          1381.5105503  -0.040954402155135
           313.8714758   -0.18475828956188
          88.053870623   -0.47567280643953
          27.039914905   -0.43495153584169
 s    3 1.00
          45.648731303  -0.091904045808942
          4.9664522326    0.55698777214497
          2.0116242047     0.5111546829846
 s    1 1.00
         0.35661077013                   1
 s    1 1.00
         0.13507221477                   1
 p    5 1.00
          261.98233439  -0.009183054659266
          61.306894736   -0.06590222652599
          19.103729887   -0.24587784518735
          6.6567720378    -0.4823147107602
          2.3959635161   -0.38956314351423
 p    1 1.00
         0.61776161679                   1
 p    1 1.00
         0.16993376871                   1
 d    1 1.00
                  0.55                   1

9 0
 s    5 1.00
          1238.4016938  0.0055173650481097
          186.29004992   0.041088828555946
          42.251176346     0.1822538212649
          11.676557932    0.46828459437429
          3.5930506482    0.44575817336002
 s    1 1.00
         0.40245147363                   1
 s    1 1.00
         0.13090182668                   1
 p    3 1.00
          9.4680970621   0.056888332011037
          2.0103545142    0.31294059336471
         0.54771004707    0.76065016509135
 p    1 1.00
         0.15268613795                   1
 d    1 1.00
                   0.8                   1

10 0
 s    3 1.00
             13.010701   0.033485484812989
             1.9622572    0.23472187088125
            0.44453796    0.81377028525955
 s    1 1.00
            0.12194962                   1
 p    1 1.00
                   0.8                   1

11 0
 s    3 1.00
             13.010701   0.033485484812989
             1.9622572    0.23472187088125
            0.44453796    0.81377028525955
 s    1 1.00
            0.12194962                   1
 p    1 1.00
                   0.8                   1

12 0
 s    3 1.00
             13.010701   0.033485484812989
             1.9622572    0.23472187088125
            0.44453796    0.81377028525955
 s    1 1.00
            0.12194962                   1
 p    1 1.00
                   0.8                   1

13 0
 s    5 1.00
          1238.4016938  0.0055173650481097
          186.29004992   0.041088828555946
          42.251176346     0.1822538212649
          11.676557932    0.46828459437429
          3.5930506482    0.44575817336002
 s    1 1.00
         0.40245147363                   1
 s    1 1.00
         0.13090182668                   1
 p    3 1.00
          9.4680970621   0.056888332011037
          2.0103545142    0.31294059336471
         0.54771004707    0.76065016509135
 p    1 1.00
         0.15268613795                   1
 d    1 1.00
                   0.8                   1

14 0
 s    3 1.00
             13.010701   0.033485484812989
             1.9622572    0.23472187088125
            0.44453796    0.81377028525955
 s    1 1.00
            0.12194962                   1
 p    1 1.00
                   0.8                   1

15 0
 s    3 1.00
             13.010701   0.033485484812989
             1.9622572    0.23472187088125
            0.44453796    0.81377028525955
 s    1 1.00
            0.12194962                   1
 p    1 1.00
                   0.8                   1

16 0
 s    3 1.00
             13.010701   0.033485484812989
             1.9622572    0.23472187088125
            0.44453796    0.81377028525955
 s    1 1.00
            0.12194962                   1
 p    1 1.00
                   0.8                   1

17 0
 s    5 1.00
          1238.4016938  0.0055173650481097
          186.29004992   0.041088828555946
          42.251176346     0.1822538212649
          11.676557932    0.46828459437429
          3.5930506482    0.44575817336002
 s    1 1.00
         0.40245147363                   1
 s    1 1.00
         0.13090182668                   1
 p    3 1.00
          9.4680970621   0.056888332011037
          2.0103545142    0.31294059336471
         0.54771004707    0.76065016509135
 p    1 1.00
         0.15268613795                   1
 d    1 1.00
                   0.8                   1

18 0
 s    3 1.00
             13.010701   0.033485484812989
             1.9622572    0.23472187088125
            0.44453796    0.81377028525955
 s    1 1.00
            0.12194962                   1
 p    1 1.00
                   0.8                   1

19 0
 s    3 1.00
             13.010701   0.033485484812989
             1.9622572    0.23472187088125
            0.44453796    0.81377028525955
 s    1 1.00
            0.12194962                   1
 p    1 1.00
                   0.8                   1

20 0
 s    3 1.00
             13.010701   0.033485484812989
             1.9622572    0.23472187088125
            0.44453796    0.81377028525955
 s    1 1.00
            0.12194962                   1
 p    1 1.00
                   0.8                   1

21 0
 s    5 1.00
          1238.4016938  0.0055173650481097
          186.29004992   0.041088828555946
          42.251176346     0.1822538212649
          11.676557932    0.46828459437429
          3.5930506482    0.44575817336002
 s    1 1.00
         0.40245147363                   1
 s    1 1.00
         0.13090182668                   1
 p    3 1.00
          9.4680970621   0.056888332011037
          2.0103545142    0.31294059336471
         0.54771004707    0.76065016509135
 p    1 1.00
         0.15268613795                   1
 d    1 1.00
                   0.8                   1

22 0
 s    3 1.00
             13.010701   0.033485484812989
             1.9622572    0.23472187088125
            0.44453796    0.81377028525955
 s    1 1.00
            0.12194962                   1
 p    1 1.00
                   0.8                   1

23 0
 s    3 1.00
             13.010701   0.033485484812989
             1.9622572    0.23472187088125
            0.44453796    0.81377028525955
 s    1 1.00
            0.12194962                   1
 p    1 1.00
                   0.8                   1

24 0
 s    3 1.00
             13.010701   0.033485484812989
             1.9622572    0.23472187088125
            0.44453796    0.81377028525955
 s    1 1.00
            0.12194962                   1
 p    1 1.00
                   0.8                   1

[5d]
[7f]
[9g]

[MO]
 Sym= A
 Ene=               0
 Spin= Alpha
 Occup=    1.00000
   1    0.00070333760304159
   2    -0.0020912495403575
   3     0.009359552907617
   4    -0.016651791445259
   5    0.0083444844598469
   6    -0.0010141306237446
   7    0.0022795493895676
   8     0.002057339262336
   9    0.0031669020333938
  10    -0.0070885797533446
  11    -0.0064414551160134
  12    -0.0049897891855524
  13    0.0097673482209122
  14    0.0099311794254755
  15    -0.031262115104091
  16     -0.63919791047551
  17      0.28202405368689
  18       -0.513194403551
  19      0.13964911190766
  20    -0.0085264093912849
  21     -0.17176201956856
  22     0.077516915237201
  23     -0.13866997511372
  24     0.036666591980377
  25    4.8577356529764e-05
  26    -0.00031592649197806
  27    -0.00013999827306021
  28    -0.00013684338092355
  29    -0.00030107131771722
  30    -0.00021113232381051
  31    -0.00032137585443977
  32    -0.00023998418425946
  33    -0.001693954003964
  34    0.0040186713791426
  35    0.0043976210196502
  36    -0.016693876592061
  37     0.011268222635133
  38     -0.01366543119828
  39    -0.028254135658356
  40     0.019141324764071
  41    -0.022963715084847
  42    -0.044169350708539
  43     0.033270063953458
  44    -0.043843878601069
  45    0.0025207319411305
  46    0.00027139448422266
  47    -8.8113529945973e-05
  48    0.00018932255240502
  49    0.0019923184570166
  50    -0.00014793318978006
  51    -0.0011048126647803
  52    0.0034810370849774
  53    0.0038325489980528
  54     0.015763733452793
  55    -0.002002779168686
  56     0.016255269394499
  57     0.026635067307033
  58    -0.0032790147864863
  59     0.027479913628806
  60     0.042578798711919
  61    -0.0099733798650039
  62     0.048759411331275
  63    -0.0011295947107808
  64    -0.00080273603540593
  65    -0.0022283424247084
  66    -0.00056305207247094
  67    -0.0013394376618215
  68    0.0013386602143396
  69    -0.0038372519538448
  70     0.018529411941573
  71     -0.03391296419494
  72     0.015619561393874
  73    0.00053463710846439
  74    -0.0022668483382469
  75    -0.0016643743727561
  76    -0.0017491287072872
  77    0.0073982727848098
  78     0.005430218840606
  79    0.0027983340195983
  80    -0.010290415952416
  81    -0.0081361554586926
  82    0.00080549365565448
  83    0.0032950409517219
  84    -0.0035301459059929
  85    0.0019692434167867
  86    -0.00080080395144176
  87    0.0011763893968044
  88    0.0049731406394681
  89    -0.00039431160392459
  90    0.00029167685850857
  91    -0.0033354420529739
  92    -4.627830308878e-05
  93    0.00021222277140551
  94    0.00016193323771189
  95    -0.00031991061985593
  96    -1.2644902612309e-05
  97    0.0003167892125975
  98    -5.7368706491153e-05
  99    -0.00088866934602479
 100    -0.0058411232305175
 101    0.0087977421735821
 102    0.0083162820690217
 103    0.0050469601080555
 104    -0.0071817887729102
 105    -0.00077137158263893
 106    0.0089034913170581
 107    -0.012584865364825
 108    -0.0015848297217816
 109    0.0090653277606195
 110    -0.019106325915129
 111    -0.00022792699569482
 112    0.0017831560800693
 113    0.0027977582560877
 114    -0.0013601618385912
 115    -0.0023509781963336
 116    0.0015181526103058
 117    -0.0010035381204713
 118    -0.0065853677314235
 119    0.0093966793745756
 120     0.010533066348485
 121    -0.005880042101165
 122    -0.0026859921354478
 123    -0.0043190339587514
 124     -0.01012739873487
 125    -0.0050250632763973
 126    -0.0075672800677696
 127    -0.015139807653471
 128    -0.0034033065783806
 129    -0.0096172152816025
 130    0.0010584762101801
 131    -0.00058058355037862
 132    -0.0037182202825099
 133    0.0026316287604307
 134    -0.0027865668636325
 135    -0.00013705316262389
 136    -0.00093254058896406
 137    0.0026801425445494
 138    -0.0034614833726608
 139    0.00062607276849951
 140    0.0011093289392184
 141    0.0021373479486869
 142    0.0014942468687969
 143    0.0019851690665183
 144    0.0036618785575851
 145    -0.00049998810155482
 146    0.0033067431494757
 147    0.0066286994411658
 148    -3.0335010281363e-05
 149    -0.00030462329350043
 150    -0.00021753796870819
 151    0.00026214384556734
 152    -0.00022989309169431
 153    -0.00017929825130581
 154    -0.0012151016091241
 155    0.0031153820515644
 156    -0.0028073757375471
 157    -0.0013663051933857
 158    0.0023076714725274
 159    5.1928275984991e-05
 160    -0.0027083363703351
 161    0.0039171379637951
 162    0.00011082742872879
 163    -0.0023428432518721
 164     0.007708584552185
 165    0.00029404773860172
 166    2.6102787503833e-05
 167    0.00019038933621436
 168    -0.00017214678922849
 169    -6.2979776479204e-06
 170    0.00043430179377687
 171    0.0035846361503636
 172    -0.0083354117079291
 173    -0.0052817906939529
 174    0.0072857320076673
 175     0.012944954721883
 176      0.00994473867714
 177    0.0067838402672287
 178    0.0058296652074341
 179    0.0085669030168439
 180    -0.00044858426823367
 181    -0.00065236607010937
 182    -0.00072579063493883
 183    7.8035458879968e-05
 184    -0.00049992935886752
 185    0.0037126473389287
 186    0.0022356619990542
 187    -9.4546180577934e-05
 188    0.00046998636831458
 189    0.00030990198050907
 190     0.004636589389145
 191    0.0036875550886749
 192    0.00039527481573357
 193    9.9950454923752e-05
 194    5.7275645289744e-05
 195    -0.00086857994346228
 196    -0.0022817687480119
 197    9.8044213041831e-05
 198    -0.00017473133927665
 199    0.00010024653082253
 200    0.0033789734774652
 201    -0.0070978025777992
 202    -0.0083457469038382
 203    -0.014729094965185
 204    0.0031868615299425
 205    0.0038509091892133
 206    -0.011034354233706
 207    0.00043476508190775
 208    0.00089478882410492
 209    0.00088345607084999
 210    -0.00052314756345354
 211    0.00028445445030028
 212    -0.00083130629771534
 213    -2.2282906220838e-05
 214    -0.00019561300467886
 215    -0.0023245883818549
 216    -0.00029017983748366
 217    4.5527236609972e-05
 218    0.00015226039077872
 219    0.0065304373581156
 220    0.0050730085108706
 221    -0.00029544641533517
 222    7.6159814003091e-06
 223    -0.00015919057535943
 224    5.7747717898266e-05
 225    0.0036757908494381
 226    -5.6301977326351e-06
 227    6.0943361638392e-06
 228    -0.00013618677389328
 229    -0.00064937235367271
 230    0.00072158113309026
 231     0.010443677987944
 232    -0.00021436354367788
 233    0.0014703463300789
 234    0.0011945971302816
 235    -0.0021703866645486
 236    0.00086571663641488
 237    0.0015991055874407
 238    -2.7164193821635e-05
 239    -1.0684053288423e-05
 240    6.8682402253222e-05
 241    1.4529420445202e-05
 242    0.0001179912010786
 243    -0.00028743604077594
 244    -0.0034266208643859
 245    4.0524806247066e-05
 246    8.364556967424e-05
 247    -3.3206867430487e-05
 248    -0.00061765874613889
 249    -0.0021641153389254
 250    -1.7484247589512e-05
 251    -5.6920069513331e-05
 252    3.214725074167e-05
 253    0.00064882849741575
 254    -0.0086201130028889
 255    -0.00012948273380226
 256    -0.00021630283933676
 257    2.2105761834634e-05
 258    -0.00055732393445938
 259    0.00060166441368323
 260    0.0095113768160813
 261    -0.00068649769298714
 262    0.0012904380073618
 263    0.00068822587662334
 264    0.0007699534936074
 265    0.0016551964837003
 266    0.0001789945609491
 267    -6.0156865394884e-05
 268    -0.00010863581940312
 269    2.3776104502932e-05
 270    5.6636521572561e-05
 271    -4.5498467944561e-05
 272    -0.0004807121090719
 273    -0.0020596926486589
 274    3.0085277961569e-05
 275    8.2242178798869e-06
 276    -6.8117177712638e-05
 277    0.00044498661085144
 278    -0.0071642772869843
 279    0.00015254877061299
 280    9.2696227373635e-06
 281    -0.00011730909434389
 282    -0.00025279720094338
 283    -0.0035040243736319
 284    -4.5218488817613e-05
 285    -1.3630432851532e-05
 286    8.9972392731655e-05
 Sym= A
 Ene=               1
 Spin= Alpha
 Occup=    1.00000
   1    -0.00062090586045169
   2    0.0018585064026276
   3    -0.0082121224640988
   4     0.015261483510228
   5    -0.017678207635837
   6    -0.00096158028027112
   7    -0.00073464419136573
   8    -0.00046436414869704
   9    0.0030482947658843
  10     0.002222953685928
  11     0.001374987269849
  12    -0.0060488143492075
  13    0.0012953625762913
  14    0.00087138831012192
  15    -0.0018107780075943
  16     -0.34576775650904
  17     -0.68490554828832
  18      0.16090663472864
  19      0.39584439950771
  20    -0.00013609099280326
  21    -0.090579267146087
  22     -0.18292253309793
  23     0.044419770918075
  24      0.10522820588917
  25    0.00021927876477581
  26    -0.00020500467172757
  27    -8.592495336163e-05
  28    0.00028294703204962
  29    -0.00016877126032297
  30    -0.00021393699832051
  31    8.8962937347467e-05
  32    0.00039613187041071
  33    0.0027488919705414
  34    -0.0060749887560227
  35    -0.0047635281927494
  36     0.012835595722194
  37    0.0068779049962144
  38    -0.020442971384158
  39      0.02176048246792
  40     0.011335395138936
  41    -0.034486524125778
  42     0.031905325024421
  43     0.022962365084522
  44    -0.059707055774837
  45    0.00096967242387817
  46    -0.0022229478314464
  47    0.0019883222208432
  48    0.0011271555718213
  49    -0.00055689440024413
  50    0.00069626651213271
  51    0.0046646101138384
  52    -0.0080755651595889
  53    -0.0066631662964661
  54    -0.0064282912841445
  55    -0.019752017545292
  56    0.0067855598199271
  57    -0.010916480840909
  58    -0.033507842739815
  59     0.011227043398822
  60    -0.014278561082248
  61    -0.054114710589244
  62     0.023705242478374
  63    -0.0019981444609019
  64    0.00033708963101487
  65    0.00078398092952234
  66    -0.0022942777542927
  67    0.0012096884746288
  68    -0.0016801100915118
  69    0.0047998695957818
  70    -0.023326759935252
  71     0.039676293803545
  72    -0.0057817179931022
  73    -0.00072886874913894
  74    0.0030256666824816
  75    0.0017665004569631
  76    0.0023775892640997
  77    -0.0098948559996801
  78    -0.0057913002095057
  79    -0.0031545966193057
  80     0.016444678747164
  81    0.0091610302711609
  82    -0.0028508781237365
  83    -0.00055433072554602
  84    0.0051781729314644
  85    -0.00041767831817526
  86    -0.0012400573663179
  87    -0.0038091796187727
  88    0.0013248498964833
  89    0.0031880906900701
  90    0.0037696014543151
  91    6.0835019402535e-05
  92    4.004355667732e-06
  93    0.00018604500688958
  94    -0.00011574101683195
  95     0.000283099214726
  96    0.00020930205505705
  97    -0.00018227605771362
  98    0.00045265735206432
  99    -0.00032436298596677
 100    -0.0020628237683776
 101    0.0014218855195287
 102    0.0073196529761031
 103    0.0067411885710036
 104     0.021058348032563
 105    -0.0028073138476874
 106     0.011432165349981
 107      0.03632409555203
 108    -0.0048050852729936
 109     0.019558086932692
 110      0.06218439475897
 111    -0.008437566542081
 112    0.00045339465512103
 113    0.0011305597004854
 114    0.0019956611054695
 115    -0.0012142226114971
 116    0.0001589430356669
 117    0.00016543549710098
 118    0.0011435914156656
 119    -0.0030695334990282
 120    0.0011511438656953
 121    -0.012896192177135
 122    -0.0019985463095815
 123     0.014015038251668
 124    -0.022155825885584
 125    -0.0031699090241248
 126     0.024285924743909
 127    -0.038938139050398
 128    -0.0077603320997093
 129     0.040088765608744
 130    -0.00050009867414596
 131    -0.00045581908520677
 132    0.0019135093177641
 133    -7.4473554637458e-05
 134    -0.00072271918598739
 135    0.00046566395127182
 136     0.003079211688478
 137    -0.005011957676258
 138     -0.00417644448646
 139    0.00026614950161113
 140    -0.00087265703881443
 141    -0.0035130827817916
 142    0.00086400212086372
 143    -0.001570062674987
 144    -0.0062613520007796
 145    -0.002243709565528
 146    -0.0027147337378478
 147    -0.010119790399357
 148    -0.00014152822740744
 149    -0.00071435337652213
 150    0.00036847480233475
 151    0.00033635342851658
 152    -0.00030596597840579
 153    0.00039416996842892
 154    0.0026033171196005
 155    -0.0043168420832676
 156    -0.0030514336535664
 157    0.00053851304777606
 158    -0.0032278122434082
 159    0.00069470092753665
 160    0.00064056688444653
 161    -0.0058378261300768
 162     0.001189027267673
 163    0.0039746013676151
 164    -0.0083570689161148
 165    0.0020443775994436
 166    -0.00035841592507425
 167    7.411880004279e-05
 168    0.00027030562335159
 169    -0.00020638732967366
 170    0.00059688229823916
 171    -0.00027022954204787
 172    0.0015204295093995
 173    -0.0092046201162422
 174    -4.073760243854e-05
 175    -0.001776951424302
 176    -0.0063102298243187
 177    -0.0024269477951641
 178    0.0010111986822766
 179    -0.0077762424566089
 180    -0.00085595002339046
 181    0.00019454033521689
 182    -0.0002166885556219
 183    0.00055551428350287
 184    0.0010533329156254
 185    0.0057700385560871
 186    0.0065619158147651
 187    -3.7995803681213e-05
 188    2.9511271278906e-05
 189    0.00019056381487804
 190    -0.0042711767855792
 191    -0.0021422041374634
 192    -0.00015845398672397
 193    6.4613511895374e-06
 194    -0.0002165835106796
 195    -0.0026834148467071
 196    0.0095293456351397
 197    8.2241388129266e-05
 198    -0.00016646434575024
 199    0.00026796811487266
 200    0.0013173957976053
 201    -0.0028476789350632
 202    -0.0046166606539313
 203    -0.0046040744372767
 204    -0.0038468421592664
 205    0.0028152181489653
 206    -0.0033823443421994
 207    -0.0050462784276866
 208    0.0018775160163123
 209    6.3531771636032e-05
 210    -0.00024501444071769
 211    0.00046532350168707
 212    0.00037223785115227
 213    0.0015343730200168
 214    0.0062180787667952
 215    0.0027150274849292
 216    -0.00029666423108351
 217    0.0003274784008807
 218    0.00033624988923668
 219    0.00094984479365051
 220    0.0017026721017867
 221    -3.8884779235938e-05
 222    -0.0001897797763876
 223    1.4095877722897e-05
 224    -0.0060152231225126
 225    0.0029340030631907
 226    -2.4615663732505e-05
 227     0.000326223389573
 228    -0.00039436256343379
 229    -0.00061798256311038
 230    0.00062911737400819
 231    0.0080785462316249
 232    0.0010925760017643