[Molden Format]
made by pyscf v[2.2.1]
[Atoms] (AU)
Fe   1   26    10.35569916261654     2.17318504324982   -15.17450078025744
S   2   16     7.65339080448850    -1.15273293598469   -16.53510358994429
S   3   16    14.15404867299231     0.79368497231733   -17.08312416606816
Fe   4   26    11.41394579237297    -2.30546587196938   -18.19806257956155
S   5   16    10.33680190137089     2.36215765570633   -10.54467177507304
S   6   16     8.74943195673624     6.19830168857340   -16.57289811243559
S   7   16    10.86592521624911    -2.83458918684759   -22.77119980100900
S   8   16    12.96352121451632    -6.44396608476686   -16.74297346364645
C   9   6    10.41239094635349     8.40928125431453   -14.19184319548361
H   10   1    12.26432254842725     9.12737718164925   -14.96663090655529
H   11   1     9.20296622663185    10.07224024393178   -13.70051440309670
H   12   1    10.80923343251215     7.25654831832984   -12.45329516088376
C   13   6     6.80301404843422     3.21253441176060   -10.46908273009044
H   14   1     5.68807563494084     1.51178089965205   -10.99820604496866
H   15   1     6.19830168857340     3.89283581660403    -8.54156208303408
H   16   1     6.46286334601251     4.68652078892135   -11.92417184600554
C   17   6     9.84547310898397    -7.97464424566456   -17.87680913838549
H   18   1     9.63760323528181    -7.57780175950590   -19.93661061416140
H   19   1     9.84547310898397   -10.05334298268613   -17.49886391347247
H   20   1     8.25810316434932    -7.02978118338203   -16.87525429236600
C   21   6    14.41861033043142    -3.49599333044536   -23.13024776467636
H   22   1    14.92883638406399    -3.89283581660403   -25.15225471796098
H   23   1    15.49575422143351    -1.81413707958246   -22.41215183734163
H   24   1    14.90993912281834    -5.14005505881697   -21.90192578370907
[GTO]
1 0
 s    6 1.00
          60923.640643  0.0017552243692958
          9147.8893982   0.013449023284001
          2081.3505927   0.066678874640978
          587.55977067    0.23176348548844
           191.0904399    0.46945550248188
          65.732730112     0.3596824938678
 s    3 1.00
          127.25891928   -0.10723431835929
           14.83091301    0.62971616328466
          6.0653307408    0.44472317896179
 s    3 1.00
           10.44994371   -0.21694289195548
          1.7245228003    0.69457867408393
         0.71772177325    0.43298308896347
 s    1 1.00
        0.091449828308                   1
 s    1 1.00
        0.033706691021                   1
 p    5 1.00
          773.43750995  0.0091440529992506
          182.15149714   0.067887577136571
          57.547272758    0.26167978878504
          20.614988935    0.51088040113251
           7.634855789    0.33235475570224
 p    3 1.00
           3.871932799    0.33193859098144
          1.4924724132     0.5553666555499
         0.56061284958    0.23106034201617
 p    1 1.00
              0.134915                   1
 d    4 1.00
          38.968133419   0.033335938558743
          10.800067078    0.17766212505983
          3.6136457999      0.441281781625
          1.2129967888    0.57089200490673
 d    1 1.00
          0.3652439317                   1
 f    1 1.00
                 1.598                   1

2 0
 s    5 1.00
           9184.930301  -0.0054729466134731
          1381.5105503  -0.040954402155135
           313.8714758   -0.18475828956188
          88.053870623   -0.47567280643953
          27.039914905   -0.43495153584169
 s    3 1.00
          45.648731303  -0.091904045808942
          4.9664522326    0.55698777214497
          2.0116242047     0.5111546829846
 s    1 1.00
         0.35661077013                   1
 s    1 1.00
         0.13507221477                   1
 p    5 1.00
          261.98233439  -0.009183054659266
          61.306894736   -0.06590222652599
          19.103729887   -0.24587784518735
          6.6567720378    -0.4823147107602
          2.3959635161   -0.38956314351423
 p    1 1.00
         0.61776161679                   1
 p    1 1.00
         0.16993376871                   1
 d    1 1.00
                  0.55                   1

3 0
 s    5 1.00
           9184.930301  -0.0054729466134731
          1381.5105503  -0.040954402155135
           313.8714758   -0.18475828956188
          88.053870623   -0.47567280643953
          27.039914905   -0.43495153584169
 s    3 1.00
          45.648731303  -0.091904045808942
          4.9664522326    0.55698777214497
          2.0116242047     0.5111546829846
 s    1 1.00
         0.35661077013                   1
 s    1 1.00
         0.13507221477                   1
 p    5 1.00
          261.98233439  -0.009183054659266
          61.306894736   -0.06590222652599
          19.103729887   -0.24587784518735
          6.6567720378    -0.4823147107602
          2.3959635161   -0.38956314351423
 p    1 1.00
         0.61776161679                   1
 p    1 1.00
         0.16993376871                   1
 d    1 1.00
                  0.55                   1

4 0
 s    6 1.00
          60923.640643  0.0017552243692958
          9147.8893982   0.013449023284001
          2081.3505927   0.066678874640978
          587.55977067    0.23176348548844
           191.0904399    0.46945550248188
          65.732730112     0.3596824938678
 s    3 1.00
          127.25891928   -0.10723431835929
           14.83091301    0.62971616328466
          6.0653307408    0.44472317896179
 s    3 1.00
           10.44994371   -0.21694289195548
          1.7245228003    0.69457867408393
         0.71772177325    0.43298308896347
 s    1 1.00
        0.091449828308                   1
 s    1 1.00
        0.033706691021                   1
 p    5 1.00
          773.43750995  0.0091440529992506
          182.15149714   0.067887577136571
          57.547272758    0.26167978878504
          20.614988935    0.51088040113251
           7.634855789    0.33235475570224
 p    3 1.00
           3.871932799    0.33193859098144
          1.4924724132     0.5553666555499
         0.56061284958    0.23106034201617
 p    1 1.00
              0.134915                   1
 d    4 1.00
          38.968133419   0.033335938558743
          10.800067078    0.17766212505983
          3.6136457999      0.441281781625
          1.2129967888    0.57089200490673
 d    1 1.00
          0.3652439317                   1
 f    1 1.00
                 1.598                   1

5 0
 s    5 1.00
           9184.930301  -0.0054729466134731
          1381.5105503  -0.040954402155135
           313.8714758   -0.18475828956188
          88.053870623   -0.47567280643953
          27.039914905   -0.43495153584169
 s    3 1.00
          45.648731303  -0.091904045808942
          4.9664522326    0.55698777214497
          2.0116242047     0.5111546829846
 s    1 1.00
         0.35661077013                   1
 s    1 1.00
         0.13507221477                   1
 p    5 1.00
          261.98233439  -0.009183054659266
          61.306894736   -0.06590222652599
          19.103729887   -0.24587784518735
          6.6567720378    -0.4823147107602
          2.3959635161   -0.38956314351423
 p    1 1.00
         0.61776161679                   1
 p    1 1.00
         0.16993376871                   1
 d    1 1.00
                  0.55                   1

6 0
 s    5 1.00
           9184.930301  -0.0054729466134731
          1381.5105503  -0.040954402155135
           313.8714758   -0.18475828956188
          88.053870623   -0.47567280643953
          27.039914905   -0.43495153584169
 s    3 1.00
          45.648731303  -0.091904045808942
          4.9664522326    0.55698777214497
          2.0116242047     0.5111546829846
 s    1 1.00
         0.35661077013                   1
 s    1 1.00
         0.13507221477                   1
 p    5 1.00
          261.98233439  -0.009183054659266
          61.306894736   -0.06590222652599
          19.103729887   -0.24587784518735
          6.6567720378    -0.4823147107602
          2.3959635161   -0.38956314351423
 p    1 1.00
         0.61776161679                   1
 p    1 1.00
         0.16993376871                   1
 d    1 1.00
                  0.55                   1

7 0
 s    5 1.00
           9184.930301  -0.0054729466134731
          1381.5105503  -0.040954402155135
           313.8714758   -0.18475828956188
          88.053870623   -0.47567280643953
          27.039914905   -0.43495153584169
 s    3 1.00
          45.648731303  -0.091904045808942
          4.9664522326    0.55698777214497
          2.0116242047     0.5111546829846
 s    1 1.00
         0.35661077013                   1
 s    1 1.00
         0.13507221477                   1
 p    5 1.00
          261.98233439  -0.009183054659266
          61.306894736   -0.06590222652599
          19.103729887   -0.24587784518735
          6.6567720378    -0.4823147107602
          2.3959635161   -0.38956314351423
 p    1 1.00
         0.61776161679                   1
 p    1 1.00
         0.16993376871                   1
 d    1 1.00
                  0.55                   1

8 0
 s    5 1.00
           9184.930301  -0.0054729466134731
          1381.5105503  -0.040954402155135
           313.8714758   -0.18475828956188
          88.053870623   -0.47567280643953
          27.039914905   -0.43495153584169
 s    3 1.00
          45.648731303  -0.091904045808942
          4.9664522326    0.55698777214497
          2.0116242047     0.5111546829846
 s    1 1.00
         0.35661077013                   1
 s    1 1.00
         0.13507221477                   1
 p    5 1.00
          261.98233439  -0.009183054659266
          61.306894736   -0.06590222652599
          19.103729887   -0.24587784518735
          6.6567720378    -0.4823147107602
          2.3959635161   -0.38956314351423
 p    1 1.00
         0.61776161679                   1
 p    1 1.00
         0.16993376871                   1
 d    1 1.00
                  0.55                   1

9 0
 s    5 1.00
          1238.4016938  0.0055173650481097
          186.29004992   0.041088828555946
          42.251176346     0.1822538212649
          11.676557932    0.46828459437429
          3.5930506482    0.44575817336002
 s    1 1.00
         0.40245147363                   1
 s    1 1.00
         0.13090182668                   1
 p    3 1.00
          9.4680970621   0.056888332011037
          2.0103545142    0.31294059336471
         0.54771004707    0.76065016509135
 p    1 1.00
         0.15268613795                   1
 d    1 1.00
                   0.8                   1

10 0
 s    3 1.00
             13.010701   0.033485484812989
             1.9622572    0.23472187088125
            0.44453796    0.81377028525955
 s    1 1.00
            0.12194962                   1
 p    1 1.00
                   0.8                   1

11 0
 s    3 1.00
             13.010701   0.033485484812989
             1.9622572    0.23472187088125
            0.44453796    0.81377028525955
 s    1 1.00
            0.12194962                   1
 p    1 1.00
                   0.8                   1

12 0
 s    3 1.00
             13.010701   0.033485484812989
             1.9622572    0.23472187088125
            0.44453796    0.81377028525955
 s    1 1.00
            0.12194962                   1
 p    1 1.00
                   0.8                   1

13 0
 s    5 1.00
          1238.4016938  0.0055173650481097
          186.29004992   0.041088828555946
          42.251176346     0.1822538212649
          11.676557932    0.46828459437429
          3.5930506482    0.44575817336002
 s    1 1.00
         0.40245147363                   1
 s    1 1.00
         0.13090182668                   1
 p    3 1.00
          9.4680970621   0.056888332011037
          2.0103545142    0.31294059336471
         0.54771004707    0.76065016509135
 p    1 1.00
         0.15268613795                   1
 d    1 1.00
                   0.8                   1

14 0
 s    3 1.00
             13.010701   0.033485484812989
             1.9622572    0.23472187088125
            0.44453796    0.81377028525955
 s    1 1.00
            0.12194962                   1
 p    1 1.00
                   0.8                   1

15 0
 s    3 1.00
             13.010701   0.033485484812989
             1.9622572    0.23472187088125
            0.44453796    0.81377028525955
 s    1 1.00
            0.12194962                   1
 p    1 1.00
                   0.8                   1

16 0
 s    3 1.00
             13.010701   0.033485484812989
             1.9622572    0.23472187088125
            0.44453796    0.81377028525955
 s    1 1.00
            0.12194962                   1
 p    1 1.00
                   0.8                   1

17 0
 s    5 1.00
          1238.4016938  0.0055173650481097
          186.29004992   0.041088828555946
          42.251176346     0.1822538212649
          11.676557932    0.46828459437429
          3.5930506482    0.44575817336002
 s    1 1.00
         0.40245147363                   1
 s    1 1.00
         0.13090182668                   1
 p    3 1.00
          9.4680970621   0.056888332011037
          2.0103545142    0.31294059336471
         0.54771004707    0.76065016509135
 p    1 1.00
         0.15268613795                   1
 d    1 1.00
                   0.8                   1

18 0
 s    3 1.00
             13.010701   0.033485484812989
             1.9622572    0.23472187088125
            0.44453796    0.81377028525955
 s    1 1.00
            0.12194962                   1
 p    1 1.00
                   0.8                   1

19 0
 s    3 1.00
             13.010701   0.033485484812989
             1.9622572    0.23472187088125
            0.44453796    0.81377028525955
 s    1 1.00
            0.12194962                   1
 p    1 1.00
                   0.8                   1

20 0
 s    3 1.00
             13.010701   0.033485484812989
             1.9622572    0.23472187088125
            0.44453796    0.81377028525955
 s    1 1.00
            0.12194962                   1
 p    1 1.00
                   0.8                   1

21 0
 s    5 1.00
          1238.4016938  0.0055173650481097
          186.29004992   0.041088828555946
          42.251176346     0.1822538212649
          11.676557932    0.46828459437429
          3.5930506482    0.44575817336002
 s    1 1.00
         0.40245147363                   1
 s    1 1.00
         0.13090182668                   1
 p    3 1.00
          9.4680970621   0.056888332011037
          2.0103545142    0.31294059336471
         0.54771004707    0.76065016509135
 p    1 1.00
         0.15268613795                   1
 d    1 1.00
                   0.8                   1

22 0
 s    3 1.00
             13.010701   0.033485484812989
             1.9622572    0.23472187088125
            0.44453796    0.81377028525955
 s    1 1.00
            0.12194962                   1
 p    1 1.00
                   0.8                   1

23 0
 s    3 1.00
             13.010701   0.033485484812989
             1.9622572    0.23472187088125
            0.44453796    0.81377028525955
 s    1 1.00
            0.12194962                   1
 p    1 1.00
                   0.8                   1

24 0
 s    3 1.00
             13.010701   0.033485484812989
             1.9622572    0.23472187088125
            0.44453796    0.81377028525955
 s    1 1.00
            0.12194962                   1
 p    1 1.00
                   0.8                   1

[5d]
[7f]
[9g]

[MO]
 Sym= A
 Ene=               0
 Spin= Alpha
 Occup=    1.00000
   1    -0.0018441586254962
   2    0.0053122942095931
   3     -0.02537665062556
   4     0.048048421355991
   5    -0.012384898688717
   6    -0.00058220348622804
   7    0.0034700593893351
   8    0.0020953609185007
   9    0.0018121661611934
  10    -0.010743718989689
  11    -0.0064703562311069
  12    -0.0027555329901209
  13     0.018024821331592
  14     0.011151192435269
  15     -0.24273064391798
  16      0.12918605029839
  17     -0.26054618649273
  18      0.59940220960962
  19      0.27592660203554
  20    -0.064468652627372
  21      0.03599032761385
  22    -0.072766445378563
  23      0.16266316634114
  24     0.074414803009208
  25    7.3216075739113e-05
  26    6.8708327102814e-06
  27    -6.3652353787207e-05
  28    0.0001631050069312
  29    0.00012099727616748
  30    1.5702302869058e-05
  31    0.00024635039553513
  32    0.0032592826299209
  33     0.021406401938895
  34    -0.030489888040195
  35     -0.02423171258073
  36     0.013129100165388
  37    -0.0014512089051532
  38    -0.0016158886865396
  39     0.021946353336683
  40    -0.0024648008024828
  41    -0.0026201993049576
  42     0.031635696972355
  43    -0.0038657235776572
  44    -0.0028445233993733
  45    -0.00065924607944262
  46    -0.0015610054122973
  47    0.0036583799412802
  48    -0.0027301869667458
  49    -0.0029517907572863
  50    0.0032215002826629
  51     0.021179165747252
  52    -0.030350699906235
  53    -0.024247634144457
  54    -0.012400375623115
  55    -0.0058121179284831
  56    -0.003113480795588
  57    -0.020756565347091
  58    -0.0096734435021369
  59    -0.0052600923473695
  60    -0.030410865467247
  61    -0.012914523580219
  62    -0.0082738894404609
  63    0.00038069463713635
  64    -2.8874424046992e-05
  65    0.0046567113433304
  66    -0.0033545033551113
  67    -0.00037420451280415
  68    -0.001774686944788
  69     0.005039806895894
  70    -0.024796758004137
  71     0.046377502945927
  72    -0.013359774479244
  73    0.0005190706437309
  74    -0.0021598205162718
  75    -0.0016593533293665
  76    -0.0015405459341822
  77    0.0064244146967184
  78    0.0049675712657517
  79    0.0026663451376286
  80    -0.010989291780496
  81    -0.0082292834152718
  82     -0.17697782029066
  83    -0.084381560591817
  84      -0.1043801562218
  85      0.28648592483145
  86      0.23479998088531
  87    -0.049055573043174
  88    -0.023313837571942
  89    -0.030572803164799
  90     0.080468620809914
  91     0.065928853000898
  92    -3.2341202568346e-05
  93    -7.885767146066e-05
  94    -0.00010702375032889
  95    0.00018672466558275
  96    4.6371840786278e-05
  97    -0.00018425286937583
  98    0.00018178819455238
  99    -0.00076951863667669
 100    -0.0049142184452957
 101     0.005155152624143
 102    0.0044726949521689
 103    0.00056016876230823
 104    0.0050366328473188
 105    -0.011505508699426
 106    0.00086943321510645
 107     0.008770832500025
 108    -0.019559086168337
 109    0.0012331927108395
 110     0.014205901062639
 111    -0.032648316960002
 112    0.00093314643113648
 113    -0.00049744198838019
 114    0.00089180057253836
 115    0.00052909947325592
 116    -9.3173483563427e-06
 117    -0.0006581128931563
 118    -0.0041994108783383
 119    0.0041256157854243
 120     0.002773166515236
 121     0.005649543293154
 122    -0.0091944966618703
 123    0.0068055259051828
 124    0.0097088975706037
 125    -0.015604778944028
 126      0.01175513845333
 127      0.01607937302738
 128     -0.02631159263343
 129     0.019153515914222
 130    -0.0012459270121617
 131    0.00025991762029448
 132    0.0004978412709253
 133    -0.0011536459654184
 134    0.0002090476252566
 135    -0.00065064543369212
 136    -0.0041451079495988
 137    0.0038557191798553
 138    0.0060497560106464
 139    2.551293159822e-05
 140    8.9631370567379e-05
 141    0.0077942709733653
 142    -3.5247541238053e-05
 143    -6.7161706402177e-06
 144     0.013165919671032
 145    0.0018761785018292
 146    0.00066212252094605
 147     0.021673827458865
 148     0.000904234530011
 149    0.00025693086338017
 150    0.00051953165423523
 151    -4.3896808033455e-05
 152    0.00036269375607123
 153    -0.00062795041307457
 154    -0.0040008258314923
 155    0.0037729730300159
 156    0.0058591771590641
 157    -0.00095478763314455
 158    0.0065482740201901
 159    -0.0029378520362066
 160    -0.0014885367049216
 161     0.011023751425878
 162    -0.0051061633198194
 163    -0.0043645084759487
 164     0.017700245360735
 165    -0.0080135583036828
 166    -0.00054396114012914
 167    -0.0001222021955279
 168    -0.00031160053438425
 169    -0.00049863078598399
 170    -0.0008476610944583
 171    -0.0004065517860762
 172    0.0019029146905302
 173    -0.0038151813054583
 174    -0.0034014003563062
 175    -0.0019404214716722
 176    -0.0042714045928042
 177    -0.0020960712064951
 178    0.0018310580523491
 179    -0.0026832081591534
 180    -0.00040821029464415
 181    -0.00017718962480177
 182    0.00050920140272963
 183    -0.00043863421788681
 184    9.2727822575724e-05
 185    -0.0013757940948443
 186    0.0010435765314001
 187    3.9679700651914e-05
 188    -0.00019388518476555
 189    -0.00017622103020086
 190    0.0017225617622368
 191     0.002302792112316
 192    -8.8850553130273e-05
 193    -2.0475488308302e-05
 194    -1.6452262333943e-05
 195    -0.0027915888158456
 196    -0.0020052781598864
 197    3.6956946056456e-06
 198    -0.00016302729496743
 199    0.00027373750190483
 200    0.00028883385120532
 201    -0.0002944423590559
 202    -0.0013814524087639
 203    0.0026855625893842
 204    -0.0010988672634536
 205     0.002809593510797
 206    -0.00046110874654704
 207    -0.00010539515249824
 208    0.0022525422753909
 209    0.00013296481373978
 210    -0.00068347792854976
 211    0.00039270529578419
 212    0.0003148653998819
 213    0.00016710365147219
 214    -0.0013328047522748
 215    0.00046099033715557
 216     0.000119569326448
 217    -9.4570683420855e-05
 218    -3.2659178883328e-06
 219     0.003134316966617
 220    0.0030925932905628
 221    1.0569487192548e-05
 222    -4.7437522620173e-05
 223    -2.5241500140293e-06
 224    -0.0042903294200288
 225    -0.0049335719168283
 226    3.2926028385522e-05
 227    0.00029682354388518
 228    -0.00027209367286462
 229    0.0011652771618576
 230    -0.0018869164765094
 231    -0.0068193674009112
 232    0.00062543386534436
 233    -0.0035087460700501
 234    -7.8283383493351e-06
 235    -0.0007124483939168
 236    -0.0032370564258237
 237    -0.00049111640031103
 238    -0.00027300640622539
 239    -0.0001192879622865
 240    -0.00013360853675561
 241    -0.00062323746930881
 242    0.00025980098949134
 243    -0.0018677828955436
 244    -0.00049998742070006
 245    4.2158476088538e-05
 246    6.9744780348395e-05
 247    -0.0002311696327435
 248    0.0041094217130528
 249    0.0040984936484771
 250    -2.8379450401454e-05
 251    1.5686139450089e-05
 252    -5.1962141405101e-05
 253    -0.0029910366124148
 254    0.0017959573477922
 255    0.00014735270610265
 256    0.00037314060844356
 257    2.2824340823753e-05
 258    0.0009671242865954
 259    -0.0013448353520432
 260    -0.0069907083200016
 261    -0.00016514742379177
 262    -0.0012707679099944
 263    -0.0028474479654187
 264    0.0014570841539785
 265    -0.0012247408965649
 266    -0.0028474009194397
 267    0.0004288505429801
 268    -0.00054604483203957
 269    0.00016698088186128
 270    4.5955351063603e-06
 271    -9.3699451233431e-05
 272    0.0038679967488426
 273    0.0038829207655582
 274    2.5440513036301e-05
 275    -3.5419831320581e-05
 276    4.1401182191835e-05
 277    -0.0029686951078912
 278    0.0015391567547115
 279    -0.0002420427813217
 280    9.8998192214429e-05
 281    0.0002746828351876
 282    -0.0017115891033815
 283    -0.00031465535270051
 284    -1.845872182278e-05
 285    -0.0001865059976082
 286    0.00013392308765721
 Sym= A
 Ene=               1
 Spin= Alpha
 Occup=    1.00000
   1    -0.00025515161407786
   2    0.00071390643696349
   3    -0.0036220969009612
   4    0.0079003931784593
   5    -0.0063201221129279
   6    -0.0015742913413689
   7    0.0026812918533335
   8    0.0020646025781752
   9    0.0049379499647069
  10    -0.0083411068767155
  11    -0.0064642088497499
  12    -0.0085562937714688
  13     0.014429507357275
  14      0.01187594544985
  15    -0.095599382382046
  16     -0.66137171088524
  17     -0.12610988791416
  18      -0.1838777043701
  19      0.37532664948554
  20    -0.025344730860752
  21     -0.17829566766914
  22    -0.033493902278699
  23    -0.050074649602504
  24      0.10068826448506
  25    0.00012400528492409
  26    -0.00022515192554045
  27    -0.0001437836568653
  28    2.4809257263679e-05
  29    -0.00022566730712919
  30    -0.00020244685075293
  31    -9.274527675946e-05
  32    0.00096658848429842
  33    0.0063232340212453
  34    -0.0087092928826215
  35    -0.0054415626686336
  36    -0.0014902540351924
  37    0.0053058091434643
  38    -0.0094877270364446
  39    -0.0026139751685357
  40    0.0089900837763153
  41    -0.015856997585321
  42     -0.00471761205398
  43       0.0154828168222
  44    -0.028513203132575
  45    0.0034460600146463
  46    -0.0010066885617376
  47    0.0025980666509094
  48    0.00047726907290135
  49    0.00077456034190146
  50    0.0010385598639985
  51    0.0067697007752249
  52    -0.0089968438165485
  53    -0.0057537888717685
  54    0.0031801113444254
  55    -0.0071162321485524
  56    0.0054176687088919
  57    0.0053886315271133
  58    -0.011991260154789
  59    0.0090978773593738
  60    0.0096459233781672
  61    -0.020314809918207
  62     0.016824716698783
  63    -0.0029693313988522
  64    -0.0002466781621819
  65    -0.00062391045722656
  66    -0.0028729844135646
  67    -0.001178108892701
  68    -9.2414877469517e-06
  69    -5.0153500362625e-06
  70    -0.00028609611276935
  71    -0.00034777476072569
  72    0.0056483032819605
  73    0.00042163964686645
  74    -0.00044800935391185
  75    -0.00064214138722537
  76    -0.0013161230110807
  77    0.0013638671340968
  78    0.0020116346760806
  79    0.0021921808673403
  80    -0.00048749620598301
  81    -0.0022500990893756
  82    -0.095630912638468
  83      0.26357812156922
  84     0.035418324680444
  85      0.22363301692904
  86    -0.089948481572152
  87    -0.026717288448939
  88     0.074712194375091
  89    0.0098927952466066
  90      0.06299522530928
  91    -0.025374141053308
  92    -1.9554077605013e-05
  93    6.1484401634108e-05
  94    1.3046168926594e-05
  95    7.5099528715511e-06
  96    4.464116976252e-05
  97    6.8715201759514e-05
  98    8.1079081659597e-05
  99    -0.001116213218734
 100    -0.0072524554089038
 101     0.009078615922736
 102     0.013287255369412
 103    0.0077200273456749
 104    0.0048001770710915
 105    -0.0047597631177185
 106     0.013624910150356
 107    0.0082200626246198
 108    -0.0083358842248804
 109     0.016058911629363
 110     0.015497653167136
 111    -0.011889954286941
 112    0.0020315656423091
 113    0.0029558698947363
 114    5.4420490443569e-05
 115    -0.0025731706450091
 116    0.0015186506893541
 117    -0.0010901766976281
 118    -0.0070804163977462
 119    0.0084662565820919
 120     0.013009782662086
 121    -0.0091710621075672
 122    -0.0065441403674055
 123    0.0048326621368275
 124    -0.016032194711616
 125    -0.011594555886321
 126    0.0082067940944324
 127    -0.024315893429664
 128    -0.014899272844925
 129     0.016979627104698
 130    0.00035955811277195
 131    -0.00068405624689489
 132    -0.0023419223639704
 133    0.0020336211170802
 134    -0.0028971834267803
 135    0.00020060497359652
 136    0.0013264713830328
 137    -0.0015342459847578
 138    -0.0057875565152686
 139    0.0033260676135687
 140    0.0019158189798191
 141    0.0015535475036444
 142    0.0061709294809703
 143    0.0032583377379639
 144    0.0024206999175823
 145    0.0055171601739889
 146    0.0061846038859852
 147    0.0056178239263217
 148    -0.00015919042246466
 149    -0.0016905674437513
 150    0.00016984591714725
 151    0.0011519754444609
 152    -0.00070938138354735
 153    0.00024272555308161
 154     0.001588747823372
 155    -0.0016805942474789
 156    -0.0063755707990645
 157    -0.0038431067731197
 158    0.00035560858838718
 159    0.00091107585765846
 160    -0.0069627399578636
 161    0.00031903206470926
 162    0.0015489435017751
 163    -0.0076491011132109
 164    0.0032394078772378
 165    0.0036337354227178
 166    -0.00078048145899019
 167    0.00034031228658592
 168    0.00022841427197597
 169    -0.00034452740708556
 170    0.0019853067631128
 171    0.0030384591904241
 172    -0.0060261713615767
 173    -0.013220287756261
 174    0.0055422784935278
 175     0.010336064894965
 176    0.0048837726681309
 177    0.0044481722798559
 178    0.0065854569712366
 179    0.0042162483793776
 180    -0.0009347441370898
 181    -0.00057192285747051
 182    -0.00060763133215586
 183    0.00017663505081884
 184    4.8402444913514e-05
 185    0.0056191104327698
 186     0.006507080977004
 187    -0.0001300314743916
 188    0.00035217876914386
 189    0.00030133519669793
 190    0.0028986121978645
 191    0.0036677475038847
 192    0.00026213644306032
 193    7.7604708447713e-05
 194    -7.5681983279421e-05
 195    -0.0029570819106074
 196    0.0022742016782531
 197    0.00012060792182572
 198    -0.00029508407160777
 199    0.00028257198572046
 200    0.0039249416632033
 201    -0.0078653077168747
 202    -0.014771538215093
 203    -0.014451580485529
 204    0.0013815230036918
 205    0.0057487233083627
 206    -0.010804039270228
 207    -0.00043311143397874
 208    0.0018933223988697
 209    0.00089604790308179
 210    -0.00075463454234156
 211    0.00054040759503802
 212    -0.00049752396071303
 213    0.00070719393692045
 214    0.0018423968798895
 215    0.0035233623871724
 216    -0.00025474753806055
 217    0.00018252473602305
 218    0.0002506761595217
 219    0.0074974737879792
 220    0.0073333391049266
 221    -0.00026611956912743
 222    -0.00011867187713906
 223    -0.00016465368825772
 224    -0.0037728116352957
 225    0.0034414971070174
 226    -3.2309250706302e-05
 227    0.00027000646748653
 228    -0.00038946408801819
 229    -0.0018004310165215
 230    0.0031491098598572
 231     0.012059148264663
 232    0.0052957334304574
 233    0.0046595774388375
 234    0.0021540175696032