[Molden Format]
made by pyscf v[2.0.1]
[Atoms] (AU)
Cr   1   24     1.56143912275337    -2.46507591990239    -1.82404491365355
Cr   2   24    -1.56139565905251     2.46513072196000     1.82399011159594
O   3   8     0.00002078698737     0.00002834589187    -0.00002645616574
N   4   7     5.12832174930954    -1.10581670549011    -0.60767356069801
H   5   1     6.65216855026694    -1.66292686427314    -1.66487895135981
H   6   1     5.63710405218294    -1.59213394419468     1.18765885421890
H   7   1     5.20084187906585     0.81566059741989    -0.65509245834172
N   8   7     1.71230729763415    -0.02251608677419    -4.99594076510539
H   9   1     0.29795878723855     1.27247165241550    -4.90823668593820
H   10   1     1.50271021425414    -0.85583806455427    -6.73026148236459
H   11   1     3.34039895052705     0.99863710888315    -5.18656310846864
N   12   7     1.41057094787259    -4.90763575303059     1.34785282752440
H   13   1     1.64193389675534    -6.79355407945465     0.97314659318890
H   14   1    -0.29048681014202    -4.81040367474334     2.24006056107205
H   15   1     2.72468082571676    -4.56691435331926     2.71738081369757
N   16   7    -2.00544350380280    -3.82433513431467    -3.04041437688297
H   17   1    -2.87205678671934    -5.05516478184926    -1.83221042023780
H   18   1    -2.03637832046193    -4.76397121413665    -4.73247136936628
H   19   1    -3.24475802163669    -2.37551046050250    -3.28123540501917
N   20   7     3.37923471211299    -5.33493873459111    -3.94755661599306
H   21   1     4.17102617885350    -4.76109883042731    -5.61685374703210
H   22   1     2.26176595533881    -6.82326057413281    -4.47610923358166
H   23   1     4.85383336053810    -6.19899521806112    -3.03922195969837
N   24   7    -5.12827828560868     1.10587339727385     0.60762064836653
H   25   1    -5.15408816501799    -0.81544705836782     0.54662784797006
H   26   1    -5.69743166898356     1.68113626520945    -1.14337690194197
H   27   1    -6.63528195761783     1.56841410187914     1.73267665553083
N   28   7    -1.71226383393328     0.02257088883181     4.99588785277390
H   29   1    -1.62991523860311     0.86667375415253     6.73575491620870
H   30   1    -0.22416876152653    -1.19157625647512     4.98456461383551
H   31   1    -3.28782110056328    -1.08746368536834     5.11339858210385
N   32   7     2.00548696750367     3.82438993637228     3.04035957482536
H   33   1     2.05186651577887     4.68410571893416     4.77402266739321
H   34   1     2.83712330958063     5.12208376337235     1.87805706574587
H   35   1     3.26582090902109     2.38241174030942     3.19051154350492
N   36   7    -1.41052748417173     4.90769055508820    -1.34790762958202
H   37   1    -1.75003190025884     6.78104976168840    -0.99229329828299
H   38   1    -2.65834387984003     4.49309409198925    -2.75785496783350
H   39   1     0.32278033988471     4.89894112313146    -2.18344058692784
N   40   7    -3.37919124841212     5.33499353664873     3.94750181393545
H   41   1    -2.26357064378777     6.83195331430581     4.45515784003860
H   42   1    -4.15358022727151     4.76963661305810     5.62761006813313
H   43   1    -4.86681766873998     6.18449345978121     3.04686590187224
[GTO]
1 0
 s    6 1.00
          51528.086349  0.0017695545768669
          7737.2103487   0.013556436258096
           1760.374847   0.067162645785071
          496.87706544    0.23295905918518
          161.46520598    0.47040576982722
          55.466352268    0.35733072606876
 s    3 1.00
          107.54732999   -0.10605255446629
          12.408671897    0.62543981484169
          5.0423628826    0.44878820793655
 s    3 1.00
          8.5461640165   -0.21819012081133
          1.3900441221    0.70422525667731
         0.56066602876    0.42488555412558
 s    1 1.00
        0.071483705972                   1
 s    1 1.00
        0.028250687604                   1
 p    5 1.00
          640.48536096  0.0093555063746755
          150.69711194   0.068993338492216
          47.503755296     0.2634118959318
          16.934120165    0.51034501651775
           6.240968059    0.33195512953954
 p    3 1.00
          3.0885463206    0.32917682676976
          1.1791047769    0.55491385190365
         0.43369774432    0.23818412855984
 p    1 1.00
              0.120675                   1
 d    4 1.00
          27.559479426   0.036950140313562
          7.4687020327    0.18821519783039
          2.4345903574    0.44641244239929
         0.78244754808     0.5681617303244
 d    1 1.00
         0.21995774311                   1
 f    1 1.00
                 1.147                   1

2 0
 s    6 1.00
          51528.086349  0.0017695545768669
          7737.2103487   0.013556436258096
           1760.374847   0.067162645785071
          496.87706544    0.23295905918518
          161.46520598    0.47040576982722
          55.466352268    0.35733072606876
 s    3 1.00
          107.54732999   -0.10605255446629
          12.408671897    0.62543981484169
          5.0423628826    0.44878820793655
 s    3 1.00
          8.5461640165   -0.21819012081133
          1.3900441221    0.70422525667731
         0.56066602876    0.42488555412558
 s    1 1.00
        0.071483705972                   1
 s    1 1.00
        0.028250687604                   1
 p    5 1.00
          640.48536096  0.0093555063746755
          150.69711194   0.068993338492216
          47.503755296     0.2634118959318
          16.934120165    0.51034501651775
           6.240968059    0.33195512953954
 p    3 1.00
          3.0885463206    0.32917682676976
          1.1791047769    0.55491385190365
         0.43369774432    0.23818412855984
 p    1 1.00
              0.120675                   1
 d    4 1.00
          27.559479426   0.036950140313562
          7.4687020327    0.18821519783039
          2.4345903574    0.44641244239929
         0.78244754808     0.5681617303244
 d    1 1.00
         0.21995774311                   1
 f    1 1.00
                 1.147                   1

3 0
 s    5 1.00
          2266.1767785  -0.0053893503921743
          340.87010191   -0.04023472138896
          77.363135167   -0.18008184205526
           21.47964494   -0.46828857657651
          6.6589433124   -0.44692617160187
 s    1 1.00
         0.80975975668                   1
 s    1 1.00
         0.25530772234                   1
 p    3 1.00
          17.721504317   0.062630248763161
           3.863550544    0.33331138482352
          1.0480920883    0.74148638308122
 p    1 1.00
         0.27641544411                   1
 d    1 1.00
                   1.2                   1

4 0
 s    5 1.00
          1712.8415853  -0.0054477995804909
          257.64812677  -0.040627174632423
          58.458245853   -0.18111962250584
          16.198367905   -0.46843975563173
          5.0052600809   -0.44616846289231
 s    1 1.00
         0.58731856571                   1
 s    1 1.00
         0.18764592253                   1
 p    3 1.00
          13.571470233  -0.058848116969522
          2.9257372874   -0.32024624762471
         0.79927750754   -0.75328226520436
 p    1 1.00
         0.21954348034                   1
 d    1 1.00
                     1                   1

5 0
 s    3 1.00
             13.010701   0.033485484812989
             1.9622572    0.23472187088125
            0.44453796    0.81377028525955
 s    1 1.00
            0.12194962                   1
 p    1 1.00
                   0.8                   1

6 0
 s    3 1.00
             13.010701   0.033485484812989
             1.9622572    0.23472187088125
            0.44453796    0.81377028525955
 s    1 1.00
            0.12194962                   1
 p    1 1.00
                   0.8                   1

7 0
 s    3 1.00
             13.010701   0.033485484812989
             1.9622572    0.23472187088125
            0.44453796    0.81377028525955
 s    1 1.00
            0.12194962                   1
 p    1 1.00
                   0.8                   1

8 0
 s    5 1.00
          1712.8415853  -0.0054477995804909
          257.64812677  -0.040627174632423
          58.458245853   -0.18111962250584
          16.198367905   -0.46843975563173
          5.0052600809   -0.44616846289231
 s    1 1.00
         0.58731856571                   1
 s    1 1.00
         0.18764592253                   1
 p    3 1.00
          13.571470233  -0.058848116969522
          2.9257372874   -0.32024624762471
         0.79927750754   -0.75328226520436
 p    1 1.00
         0.21954348034                   1
 d    1 1.00
                     1                   1

9 0
 s    3 1.00
             13.010701   0.033485484812989
             1.9622572    0.23472187088125
            0.44453796    0.81377028525955
 s    1 1.00
            0.12194962                   1
 p    1 1.00
                   0.8                   1

10 0
 s    3 1.00
             13.010701   0.033485484812989
             1.9622572    0.23472187088125
            0.44453796    0.81377028525955
 s    1 1.00
            0.12194962                   1
 p    1 1.00
                   0.8                   1

11 0
 s    3 1.00
             13.010701   0.033485484812989
             1.9622572    0.23472187088125
            0.44453796    0.81377028525955
 s    1 1.00
            0.12194962                   1
 p    1 1.00
                   0.8                   1

12 0
 s    5 1.00
          1712.8415853  -0.0054477995804909
          257.64812677  -0.040627174632423
          58.458245853   -0.18111962250584
          16.198367905   -0.46843975563173
          5.0052600809   -0.44616846289231
 s    1 1.00
         0.58731856571                   1
 s    1 1.00
         0.18764592253                   1
 p    3 1.00
          13.571470233  -0.058848116969522
          2.9257372874   -0.32024624762471
         0.79927750754   -0.75328226520436
 p    1 1.00
         0.21954348034                   1
 d    1 1.00
                     1                   1

13 0
 s    3 1.00
             13.010701   0.033485484812989
             1.9622572    0.23472187088125
            0.44453796    0.81377028525955
 s    1 1.00
            0.12194962                   1
 p    1 1.00
                   0.8                   1

14 0
 s    3 1.00
             13.010701   0.033485484812989
             1.9622572    0.23472187088125
            0.44453796    0.81377028525955
 s    1 1.00
            0.12194962                   1
 p    1 1.00
                   0.8                   1

15 0
 s    3 1.00
             13.010701   0.033485484812989
             1.9622572    0.23472187088125
            0.44453796    0.81377028525955
 s    1 1.00
            0.12194962                   1
 p    1 1.00
                   0.8                   1

16 0
 s    5 1.00
          1712.8415853  -0.0054477995804909
          257.64812677  -0.040627174632423
          58.458245853   -0.18111962250584
          16.198367905   -0.46843975563173
          5.0052600809   -0.44616846289231
 s    1 1.00
         0.58731856571                   1
 s    1 1.00
         0.18764592253                   1
 p    3 1.00
          13.571470233  -0.058848116969522
          2.9257372874   -0.32024624762471
         0.79927750754   -0.75328226520436
 p    1 1.00
         0.21954348034                   1
 d    1 1.00
                     1                   1

17 0
 s    3 1.00
             13.010701   0.033485484812989
             1.9622572    0.23472187088125
            0.44453796    0.81377028525955
 s    1 1.00
            0.12194962                   1
 p    1 1.00
                   0.8                   1

18 0
 s    3 1.00
             13.010701   0.033485484812989
             1.9622572    0.23472187088125
            0.44453796    0.81377028525955
 s    1 1.00
            0.12194962                   1
 p    1 1.00
                   0.8                   1

19 0
 s    3 1.00
             13.010701   0.033485484812989
             1.9622572    0.23472187088125
            0.44453796    0.81377028525955
 s    1 1.00
            0.12194962                   1
 p    1 1.00
                   0.8                   1

20 0
 s    5 1.00
          1712.8415853  -0.0054477995804909
          257.64812677  -0.040627174632423
          58.458245853   -0.18111962250584
          16.198367905   -0.46843975563173
          5.0052600809   -0.44616846289231
 s    1 1.00
         0.58731856571                   1
 s    1 1.00
         0.18764592253                   1
 p    3 1.00
          13.571470233  -0.058848116969522
          2.9257372874   -0.32024624762471
         0.79927750754   -0.75328226520436
 p    1 1.00
         0.21954348034                   1
 d    1 1.00
                     1                   1

21 0
 s    3 1.00
             13.010701   0.033485484812989
             1.9622572    0.23472187088125
            0.44453796    0.81377028525955
 s    1 1.00
            0.12194962                   1
 p    1 1.00
                   0.8                   1

22 0
 s    3 1.00
             13.010701   0.033485484812989
             1.9622572    0.23472187088125
            0.44453796    0.81377028525955
 s    1 1.00
            0.12194962                   1
 p    1 1.00
                   0.8                   1

23 0
 s    3 1.00
             13.010701   0.033485484812989
             1.9622572    0.23472187088125
            0.44453796    0.81377028525955
 s    1 1.00
            0.12194962                   1
 p    1 1.00
                   0.8                   1

24 0
 s    5 1.00
          1712.8415853  -0.0054477995804909
          257.64812677  -0.040627174632423
          58.458245853   -0.18111962250584
          16.198367905   -0.46843975563173
          5.0052600809   -0.44616846289231
 s    1 1.00
         0.58731856571                   1
 s    1 1.00
         0.18764592253                   1
 p    3 1.00
          13.571470233  -0.058848116969522
          2.9257372874   -0.32024624762471
         0.79927750754   -0.75328226520436
 p    1 1.00
         0.21954348034                   1
 d    1 1.00
                     1                   1

25 0
 s    3 1.00
             13.010701   0.033485484812989
             1.9622572    0.23472187088125
            0.44453796    0.81377028525955
 s    1 1.00
            0.12194962                   1
 p    1 1.00
                   0.8                   1

26 0
 s    3 1.00
             13.010701   0.033485484812989
             1.9622572    0.23472187088125
            0.44453796    0.81377028525955
 s    1 1.00
            0.12194962                   1
 p    1 1.00
                   0.8                   1

27 0
 s    3 1.00
             13.010701   0.033485484812989
             1.9622572    0.23472187088125
            0.44453796    0.81377028525955
 s    1 1.00
            0.12194962                   1
 p    1 1.00
                   0.8                   1

28 0
 s    5 1.00
          1712.8415853  -0.0054477995804909
          257.64812677  -0.040627174632423
          58.458245853   -0.18111962250584
          16.198367905   -0.46843975563173
          5.0052600809   -0.44616846289231
 s    1 1.00
         0.58731856571                   1
 s    1 1.00
         0.18764592253                   1
 p    3 1.00
          13.571470233  -0.058848116969522
          2.9257372874   -0.32024624762471
         0.79927750754   -0.75328226520436
 p    1 1.00
         0.21954348034                   1
 d    1 1.00
                     1                   1

29 0
 s    3 1.00
             13.010701   0.033485484812989
             1.9622572    0.23472187088125
            0.44453796    0.81377028525955
 s    1 1.00
            0.12194962                   1
 p    1 1.00
                   0.8                   1

30 0
 s    3 1.00
             13.010701   0.033485484812989
             1.9622572    0.23472187088125
            0.44453796    0.81377028525955
 s    1 1.00
            0.12194962                   1
 p    1 1.00
                   0.8                   1

31 0
 s    3 1.00
             13.010701   0.033485484812989
             1.9622572    0.23472187088125
            0.44453796    0.81377028525955
 s    1 1.00
            0.12194962                   1
 p    1 1.00
                   0.8                   1

32 0
 s    5 1.00
          1712.8415853  -0.0054477995804909
          257.64812677  -0.040627174632423
          58.458245853   -0.18111962250584
          16.198367905   -0.46843975563173
          5.0052600809   -0.44616846289231
 s    1 1.00
         0.58731856571                   1
 s    1 1.00
         0.18764592253                   1
 p    3 1.00
          13.571470233  -0.058848116969522
          2.9257372874   -0.32024624762471
         0.79927750754   -0.75328226520436
 p    1 1.00
         0.21954348034                   1
 d    1 1.00
                     1                   1

33 0
 s    3 1.00
             13.010701   0.033485484812989
             1.9622572    0.23472187088125
            0.44453796    0.81377028525955
 s    1 1.00
            0.12194962                   1
 p    1 1.00
                   0.8                   1

34 0
 s    3 1.00
             13.010701   0.033485484812989
             1.9622572    0.23472187088125
            0.44453796    0.81377028525955
 s    1 1.00
            0.12194962                   1
 p    1 1.00
                   0.8                   1

35 0
 s    3 1.00
             13.010701   0.033485484812989
             1.9622572    0.23472187088125
            0.44453796    0.81377028525955
 s    1 1.00
            0.12194962                   1
 p    1 1.00
                   0.8                   1

36 0
 s    5 1.00
          1712.8415853  -0.0054477995804909
          257.64812677  -0.040627174632423
          58.458245853   -0.18111962250584
          16.198367905   -0.46843975563173
          5.0052600809   -0.44616846289231
 s    1 1.00
         0.58731856571                   1
 s    1 1.00
         0.18764592253                   1
 p    3 1.00
          13.571470233  -0.058848116969522
          2.9257372874   -0.32024624762471
         0.79927750754   -0.75328226520436
 p    1 1.00
         0.21954348034                   1
 d    1 1.00
                     1                   1

37 0
 s    3 1.00
             13.010701   0.033485484812989
             1.9622572    0.23472187088125
            0.44453796    0.81377028525955
 s    1 1.00
            0.12194962                   1
 p    1 1.00
                   0.8                   1

38 0
 s    3 1.00
             13.010701   0.033485484812989
             1.9622572    0.23472187088125
            0.44453796    0.81377028525955
 s    1 1.00
            0.12194962                   1
 p    1 1.00
                   0.8                   1

39 0
 s    3 1.00
             13.010701   0.033485484812989
             1.9622572    0.23472187088125
            0.44453796    0.81377028525955
 s    1 1.00
            0.12194962                   1
 p    1 1.00
                   0.8                   1

40 0
 s    5 1.00
          1712.8415853  -0.0054477995804909
          257.64812677  -0.040627174632423
          58.458245853   -0.18111962250584
          16.198367905   -0.46843975563173
          5.0052600809   -0.44616846289231
 s    1 1.00
         0.58731856571                   1
 s    1 1.00
         0.18764592253                   1
 p    3 1.00
          13.571470233  -0.058848116969522
          2.9257372874   -0.32024624762471
         0.79927750754   -0.75328226520436
 p    1 1.00
         0.21954348034                   1
 d    1 1.00
                     1                   1

41 0
 s    3 1.00
             13.010701   0.033485484812989
             1.9622572    0.23472187088125
            0.44453796    0.81377028525955
 s    1 1.00
            0.12194962                   1
 p    1 1.00
                   0.8                   1

42 0
 s    3 1.00
             13.010701   0.033485484812989
             1.9622572    0.23472187088125
            0.44453796    0.81377028525955
 s    1 1.00
            0.12194962                   1
 p    1 1.00
                   0.8                   1

43 0
 s    3 1.00
             13.010701   0.033485484812989
             1.9622572    0.23472187088125
            0.44453796    0.81377028525955
 s    1 1.00
            0.12194962                   1
 p    1 1.00
                   0.8                   1

[5d]
[7f]
[9g]

[MO]
 Sym= A
 Ene=               0
 Spin= Alpha
 Occup=    1.00000
   1    -0.0038971534995952
   2    0.0041196679036158
   3    -0.087633054161051
   4    -0.006297050512375
   5    0.0022001217323636
   6    -0.00040452726375061
   7    0.00061781940545775
   8    0.00034769222188721
   9     0.019619922048645
  10    -0.030865450205261
  11    -0.022391932031535
  12    -0.006190960692778
  13    0.0097092961367947
  14    0.0066744656864418
  15     0.017358776003008
  16     0.091590626517822
  17     -0.14484026973601
  18     0.058464094688868
  19      0.12352891323341
  20     0.012799968553596
  21     0.065744438837386
  22     -0.10401480405509
  23     0.042048467431806
  24     0.089170953342847
  25    1.5423033174387e-05
  26    2.6106287975185e-05
  27    3.1494948583958e-05
  28    1.7098292906956e-05
  29    -8.7292943404481e-06
  30    -2.2200041212847e-05
  31    -3.6499712170086e-05
  32    -0.0010523988639654
  33    0.0062283264238386
  34    -0.0032033372317474
  35     0.016668408459092
  36    0.00043615347441622
  37     0.005332050926861
  38    -0.008454321835225
  39    -0.0063235713311231
  40    -0.012725080840267
  41      0.02024385509581
  42     0.015278904282421
  43    0.0053879565979949
  44    -0.0085866617024439
  45    -0.006377005448558
  46    -0.0029223973665322
  47    -0.016088924772653
  48     0.025427172041085
  49     -0.01027167411517
  50    -0.021624900725921
  51    -0.0011484766392501
  52    -0.0065551094083806
  53     0.010338229571381
  54    -0.0041756485724533
  55    -0.0087636366409898
  56    0.00065102268861296
  57    0.00017074853231232
  58    -0.00028275554326554
  59    0.0004841880368247
  60    0.0010367078766137
  61    -0.00073665058979921
  62    -8.3263550023895e-05
  63     -0.21427235610259
  64     -0.18702149807721
  65     -0.11905270018753
  66    -0.073848123885355
  67      0.11636649798499
  68      0.08582916854031
  69    -0.047526646302458
  70     0.074727920090016
  71     0.054821498366782
  72    0.00041779360065654
  73     0.002268359380998
  74    -0.0035890908000148
  75    0.0014526922987008
  76    0.0030730185681712
  77     0.030691959755283
  78     0.072047136344746
  79     0.065782652414246
  80      0.11858979837707
  81     0.058324111972384
  82     0.046886735147312
  83     -0.08134687256114
  84    -0.041700995682792
  85    -0.034655776700295
  86    0.00017534205156588
  87    -5.7865325224073e-05
  88    -0.00059608936312355
  89    0.0006669147422958
  90    3.3440906194751e-05
  91    -0.013777736436368
  92    -0.0079986669645971
  93    -0.0019032264854207
  94    -0.0018091972090913
  95    -0.0025008398052478
  96    -0.018819784973656
  97    -0.0085275062371885
  98    -0.0038608800870842
  99    -0.0033162473439369
 100    0.0012232867682876
 101    -0.023302920369507
 102    -0.010431971272779
 103    -0.003979319062979
 104    0.00097695645877233
 105    -0.0023167844200603
 106     0.030634454661317
 107     0.071858493470551
 108     0.066038768429626
 109    -0.0036879413977064
 110     0.096139441706367
 111      -0.1042010884884
 112    0.0017484700230412
 113    -0.067802145331573
 114     0.071577199631613
 115    0.00057347918985884
 116    0.00024208504582286
 117    -0.00017878198866505
 118    0.00039253435247552
 119    0.0010171192201295
 120    -0.025974452915721
 121    -0.011779561322954
 122    -0.0023918825141975
 123    -0.0015633719931667
 124    0.0034636776401839
 125     -0.01390877600957
 126    -0.0080339493209669
 127    -0.00076732866386327
 128    -0.003760214796631
 129    0.0013321483419586
 130    -0.016526547868239
 131    -0.0086001965503754
 132    0.0028170454517511
 133    -0.0019282768059845
 134    0.0039483928372375
 135     0.030844055394787
 136     0.072437784114658
 137     0.066127120833837
 138    -0.013231476168917
 139     -0.07728597457975
 140      0.11680258149038
 141    0.0094212485326259
 142     0.051645257158683
 143    -0.082880123875123
 144    -0.00032993875879697
 145    0.00066607571563098
 146    -0.00034619122435211
 147    -0.00028055917372541
 148    0.00031106550046121
 149    -0.013778277627402
 150    -0.0081314357971655
 151    0.00018526359022224
 152    0.00033811715588611
 153    -0.0036025155172194
 154    -0.023456092996057
 155    -0.010349158828138
 156    -0.0024817455507624
 157    0.0025365145899533
 158    -0.0031205326143521
 159    -0.018751692451066
 160    -0.0085278703095558
 161    0.0029154620669317
 162    0.0036570111304774
 163    -0.0023758999783458
 164     0.030634857229553
 165     0.071864734813879
 166     0.065904667580406
 167     -0.13146601015104
 168     -0.03595696388199
 169    -0.036891515386065
 170     0.092068062827176
 171     0.024681923625709
 172     0.023739439474011
 173    0.00054557007540001
 174    0.0002887843212537
 175    -0.0002208979055018
 176    -0.00013497757217536
 177    0.00086778820600817
 178    -0.017483093075123
 179    -0.0087582839673886
 180    0.0037712096127239
 181    -0.00067038253251671
 182    0.0035940896551805
 183    -0.013958053926454
 184    -0.008078909876283
 185    0.0036871604278997
 186    0.0005564427324344
 187    -0.00088428847022345
 188     -0.02475650149672
 189    -0.011186024262949
 190    0.0027969110667883
 191    0.0036562177271538
 192    0.00035986256387193
 193    -0.081141659858003
 194      -0.2047396632108
 195     -0.17930876939299
 196     -0.14401950735976
 197      0.22549600424839
 198      0.16562855607985
 199      0.10448148690976
 200     -0.16309027819879
 201     -0.11948698278959
 202    3.0173027548424e-05
 203    0.00043564517906115
 204    -0.00077153094321181
 205    0.00030192395107348
 206    0.00063567099651174
 207     0.030978781233299
 208      0.02087005202951
 209    0.0027396180834844
 210    -0.0082178796184951
 211    -0.0014395309077431
 212     0.031376502948028
 213     0.021022397922652
 214    0.0069482855073549
 215    -0.0036799652436158
 216    -0.0039175639391429
 217     0.029603740479781
 218       0.0208151109331
 219    0.0013634926311519
 220    -0.0051244857434165
 221    -0.0069498431094296
 222    -0.0025182962867242
 223    -0.0059892314148134
 224    -0.0029502328557827
 225    0.0061751701187222
 226    -0.0019709935469004
 227    -0.0006730926988422
 228    -0.0052723563035053
 229    0.00014154830659967
 230    9.6251595093855e-05
 231    -2.7546762187911e-05
 232    -0.00032521391566024
 233    -2.3786177986495e-05
 234    0.00043943091804538
 235    -0.00028943608700833
 236    -0.0045539426404082
 237    -0.0035380151718561
 238    -8.7022453768576e-06
 239    -0.00039672057895044
 240    0.00018417793367571
 241    -0.00093214939429503
 242    -0.00082771792177121
 243    -0.00023119046325602
 244    0.00016410192720518
 245    -9.6203630804276e-05
 246    0.0030787755187401
 247    0.00078673009042556
 248    -0.00012089531229294
 249    3.3588185702454e-05
 250    -0.00011339958281475
 251    -0.0024273865357423
 252    -0.0057711225007672
 253    -0.0023685431056586
 254    0.0026607128867564
 255    -0.00052212517380357
 256    -0.0056210095907661
 257    -0.0010169008555079
 258    -0.00088198170756772
 259    0.0046632017927838
 260    0.00045496086330086
 261    -0.0001545190665964
 262    0.0002794725940395
 263    6.074556257801e-05
 264    0.00020372948681446
 265    0.0027111142811756
 266    0.00069515998045693
 267    -0.00014435342821874
 268    -6.6134368815657e-05
 269    0.00010145085074781
 270    -0.0049981100435223
 271    -0.0040944755735043
 272    0.00041885910325233
 273    -9.2818339467012e-05
 274    1.8139584423774e-05
 275    -0.00037376826568954
 276    -0.00050862377613847
 277    -0.0001932701760193
 278    1.3198666390945e-06
 279    0.00019249096857572
 280    -0.0024445210038789
 281    -0.0058133870913145
 282    -0.0024568432932883
 283    -0.0017686838460555
 284    -0.005020407285672
 285    -0.0033388516266073
 286    0.0027428969013148
 287    0.0030365353497523
 288    0.0027242319678573
 289    0.00031554713629152
 290    5.2164821076147e-05
 291    0.00034744770135629
 292    -0.00025506252653165
 293    0.00026957134623923
 294    0.0027807270082347
 295    0.00070443883739075
 296    8.9874584489708e-05
 297    0.00016049871024341
 298    -2.1189962518776e-05
 299    -0.0004825243994754
 300    -0.00058175211384664
 301    6.7327496441483e-05
 302    0.00026286035742895
 303    4.9385501308654e-05
 304    -0.0049214015254448
 305    -0.0039608486241167
 306    0.00015018817772825
 307    -0.00036459817918917
 308    0.00017024025696884
 309    -0.0024942214900995
 310    -0.0058844487788041
 311    -0.0032157597552394
 312    0.0021229543466777
 313    -0.0058848132216314
 314    0.0015042390403593
 315    -0.00092046509111452
 316    0.0047470032562524
 317    -0.0022399980211702
 318    -0.00033709647263974
 319    0.00014345258151098
 320    2.8621822394022e-05
 321    -0.00046451290639404
 322    -0.00021196201243653
 323    0.0032240690159668
 324    0.00076866710181177
 325    -5.6942896379839e-05
 326    4.5917117824315e-05
 327    -0.00013556049827642
 328    -0.0015092205970115
 329    -0.0010884564232348
 330    -0.00025017550515998
 331    0.00013180381523959
 332    -0.0001301034599934
 333    -0.0039232553877088
 334    -0.0028793816262457
 335    0.00038530080166469
 336    0.00012707051944116
 337    -2.0839430277254e-05
 338    -0.0007894092335405
 339    -0.00048696051454777
 340    -0.0059180014705337
 341    0.0020602702389485
 342    -0.003178576249254