[Molden Format]
made by pyscf v[2.0.1]
[Atoms] (AU)
Cr   1   24     1.56143912275337    -2.46507591990239    -1.82404491365355
Cr   2   24    -1.56139565905251     2.46513072196000     1.82399011159594
O   3   8     0.00002078698737     0.00002834589187    -0.00002645616574
N   4   7     5.12832174930954    -1.10581670549011    -0.60767356069801
H   5   1     6.65216855026694    -1.66292686427314    -1.66487895135981
H   6   1     5.63710405218294    -1.59213394419468     1.18765885421890
H   7   1     5.20084187906585     0.81566059741989    -0.65509245834172
N   8   7     1.71230729763415    -0.02251608677419    -4.99594076510539
H   9   1     0.29795878723855     1.27247165241550    -4.90823668593820
H   10   1     1.50271021425414    -0.85583806455427    -6.73026148236459
H   11   1     3.34039895052705     0.99863710888315    -5.18656310846864
N   12   7     1.41057094787259    -4.90763575303059     1.34785282752440
H   13   1     1.64193389675534    -6.79355407945465     0.97314659318890
H   14   1    -0.29048681014202    -4.81040367474334     2.24006056107205
H   15   1     2.72468082571676    -4.56691435331926     2.71738081369757
N   16   7    -2.00544350380280    -3.82433513431467    -3.04041437688297
H   17   1    -2.87205678671934    -5.05516478184926    -1.83221042023780
H   18   1    -2.03637832046193    -4.76397121413665    -4.73247136936628
H   19   1    -3.24475802163669    -2.37551046050250    -3.28123540501917
N   20   7     3.37923471211299    -5.33493873459111    -3.94755661599306
H   21   1     4.17102617885350    -4.76109883042731    -5.61685374703210
H   22   1     2.26176595533881    -6.82326057413281    -4.47610923358166
H   23   1     4.85383336053810    -6.19899521806112    -3.03922195969837
N   24   7    -5.12827828560868     1.10587339727385     0.60762064836653
H   25   1    -5.15408816501799    -0.81544705836782     0.54662784797006
H   26   1    -5.69743166898356     1.68113626520945    -1.14337690194197
H   27   1    -6.63528195761783     1.56841410187914     1.73267665553083
N   28   7    -1.71226383393328     0.02257088883181     4.99588785277390
H   29   1    -1.62991523860311     0.86667375415253     6.73575491620870
H   30   1    -0.22416876152653    -1.19157625647512     4.98456461383551
H   31   1    -3.28782110056328    -1.08746368536834     5.11339858210385
N   32   7     2.00548696750367     3.82438993637228     3.04035957482536
H   33   1     2.05186651577887     4.68410571893416     4.77402266739321
H   34   1     2.83712330958063     5.12208376337235     1.87805706574587
H   35   1     3.26582090902109     2.38241174030942     3.19051154350492
N   36   7    -1.41052748417173     4.90769055508820    -1.34790762958202
H   37   1    -1.75003190025884     6.78104976168840    -0.99229329828299
H   38   1    -2.65834387984003     4.49309409198925    -2.75785496783350
H   39   1     0.32278033988471     4.89894112313146    -2.18344058692784
N   40   7    -3.37919124841212     5.33499353664873     3.94750181393545
H   41   1    -2.26357064378777     6.83195331430581     4.45515784003860
H   42   1    -4.15358022727151     4.76963661305810     5.62761006813313
H   43   1    -4.86681766873998     6.18449345978121     3.04686590187224
[GTO]
1 0
 s    6 1.00
          51528.086349  0.0017695545768669
          7737.2103487   0.013556436258096
           1760.374847   0.067162645785071
          496.87706544    0.23295905918518
          161.46520598    0.47040576982722
          55.466352268    0.35733072606876
 s    3 1.00
          107.54732999   -0.10605255446629
          12.408671897    0.62543981484169
          5.0423628826    0.44878820793655
 s    3 1.00
          8.5461640165   -0.21819012081133
          1.3900441221    0.70422525667731
         0.56066602876    0.42488555412558
 s    1 1.00
        0.071483705972                   1
 s    1 1.00
        0.028250687604                   1
 p    5 1.00
          640.48536096  0.0093555063746755
          150.69711194   0.068993338492216
          47.503755296     0.2634118959318
          16.934120165    0.51034501651775
           6.240968059    0.33195512953954
 p    3 1.00
          3.0885463206    0.32917682676976
          1.1791047769    0.55491385190365
         0.43369774432    0.23818412855984
 p    1 1.00
              0.120675                   1
 d    4 1.00
          27.559479426   0.036950140313562
          7.4687020327    0.18821519783039
          2.4345903574    0.44641244239929
         0.78244754808     0.5681617303244
 d    1 1.00
         0.21995774311                   1
 f    1 1.00
                 1.147                   1

2 0
 s    6 1.00
          51528.086349  0.0017695545768669
          7737.2103487   0.013556436258096
           1760.374847   0.067162645785071
          496.87706544    0.23295905918518
          161.46520598    0.47040576982722
          55.466352268    0.35733072606876
 s    3 1.00
          107.54732999   -0.10605255446629
          12.408671897    0.62543981484169
          5.0423628826    0.44878820793655
 s    3 1.00
          8.5461640165   -0.21819012081133
          1.3900441221    0.70422525667731
         0.56066602876    0.42488555412558
 s    1 1.00
        0.071483705972                   1
 s    1 1.00
        0.028250687604                   1
 p    5 1.00
          640.48536096  0.0093555063746755
          150.69711194   0.068993338492216
          47.503755296     0.2634118959318
          16.934120165    0.51034501651775
           6.240968059    0.33195512953954
 p    3 1.00
          3.0885463206    0.32917682676976
          1.1791047769    0.55491385190365
         0.43369774432    0.23818412855984
 p    1 1.00
              0.120675                   1
 d    4 1.00
          27.559479426   0.036950140313562
          7.4687020327    0.18821519783039
          2.4345903574    0.44641244239929
         0.78244754808     0.5681617303244
 d    1 1.00
         0.21995774311                   1
 f    1 1.00
                 1.147                   1

3 0
 s    5 1.00
          2266.1767785  -0.0053893503921743
          340.87010191   -0.04023472138896
          77.363135167   -0.18008184205526
           21.47964494   -0.46828857657651
          6.6589433124   -0.44692617160187
 s    1 1.00
         0.80975975668                   1
 s    1 1.00
         0.25530772234                   1
 p    3 1.00
          17.721504317   0.062630248763161
           3.863550544    0.33331138482352
          1.0480920883    0.74148638308122
 p    1 1.00
         0.27641544411                   1
 d    1 1.00
                   1.2                   1

4 0
 s    5 1.00
          1712.8415853  -0.0054477995804909
          257.64812677  -0.040627174632423
          58.458245853   -0.18111962250584
          16.198367905   -0.46843975563173
          5.0052600809   -0.44616846289231
 s    1 1.00
         0.58731856571                   1
 s    1 1.00
         0.18764592253                   1
 p    3 1.00
          13.571470233  -0.058848116969522
          2.9257372874   -0.32024624762471
         0.79927750754   -0.75328226520436
 p    1 1.00
         0.21954348034                   1
 d    1 1.00
                     1                   1

5 0
 s    3 1.00
             13.010701   0.033485484812989
             1.9622572    0.23472187088125
            0.44453796    0.81377028525955
 s    1 1.00
            0.12194962                   1
 p    1 1.00
                   0.8                   1

6 0
 s    3 1.00
             13.010701   0.033485484812989
             1.9622572    0.23472187088125
            0.44453796    0.81377028525955
 s    1 1.00
            0.12194962                   1
 p    1 1.00
                   0.8                   1

7 0
 s    3 1.00
             13.010701   0.033485484812989
             1.9622572    0.23472187088125
            0.44453796    0.81377028525955
 s    1 1.00
            0.12194962                   1
 p    1 1.00
                   0.8                   1

8 0
 s    5 1.00
          1712.8415853  -0.0054477995804909
          257.64812677  -0.040627174632423
          58.458245853   -0.18111962250584
          16.198367905   -0.46843975563173
          5.0052600809   -0.44616846289231
 s    1 1.00
         0.58731856571                   1
 s    1 1.00
         0.18764592253                   1
 p    3 1.00
          13.571470233  -0.058848116969522
          2.9257372874   -0.32024624762471
         0.79927750754   -0.75328226520436
 p    1 1.00
         0.21954348034                   1
 d    1 1.00
                     1                   1

9 0
 s    3 1.00
             13.010701   0.033485484812989
             1.9622572    0.23472187088125
            0.44453796    0.81377028525955
 s    1 1.00
            0.12194962                   1
 p    1 1.00
                   0.8                   1

10 0
 s    3 1.00
             13.010701   0.033485484812989
             1.9622572    0.23472187088125
            0.44453796    0.81377028525955
 s    1 1.00
            0.12194962                   1
 p    1 1.00
                   0.8                   1

11 0
 s    3 1.00
             13.010701   0.033485484812989
             1.9622572    0.23472187088125
            0.44453796    0.81377028525955
 s    1 1.00
            0.12194962                   1
 p    1 1.00
                   0.8                   1

12 0
 s    5 1.00
          1712.8415853  -0.0054477995804909
          257.64812677  -0.040627174632423
          58.458245853   -0.18111962250584
          16.198367905   -0.46843975563173
          5.0052600809   -0.44616846289231
 s    1 1.00
         0.58731856571                   1
 s    1 1.00
         0.18764592253                   1
 p    3 1.00
          13.571470233  -0.058848116969522
          2.9257372874   -0.32024624762471
         0.79927750754   -0.75328226520436
 p    1 1.00
         0.21954348034                   1
 d    1 1.00
                     1                   1

13 0
 s    3 1.00
             13.010701   0.033485484812989
             1.9622572    0.23472187088125
            0.44453796    0.81377028525955
 s    1 1.00
            0.12194962                   1
 p    1 1.00
                   0.8                   1

14 0
 s    3 1.00
             13.010701   0.033485484812989
             1.9622572    0.23472187088125
            0.44453796    0.81377028525955
 s    1 1.00
            0.12194962                   1
 p    1 1.00
                   0.8                   1

15 0
 s    3 1.00
             13.010701   0.033485484812989
             1.9622572    0.23472187088125
            0.44453796    0.81377028525955
 s    1 1.00
            0.12194962                   1
 p    1 1.00
                   0.8                   1

16 0
 s    5 1.00
          1712.8415853  -0.0054477995804909
          257.64812677  -0.040627174632423
          58.458245853   -0.18111962250584
          16.198367905   -0.46843975563173
          5.0052600809   -0.44616846289231
 s    1 1.00
         0.58731856571                   1
 s    1 1.00
         0.18764592253                   1
 p    3 1.00
          13.571470233  -0.058848116969522
          2.9257372874   -0.32024624762471
         0.79927750754   -0.75328226520436
 p    1 1.00
         0.21954348034                   1
 d    1 1.00
                     1                   1

17 0
 s    3 1.00
             13.010701   0.033485484812989
             1.9622572    0.23472187088125
            0.44453796    0.81377028525955
 s    1 1.00
            0.12194962                   1
 p    1 1.00
                   0.8                   1

18 0
 s    3 1.00
             13.010701   0.033485484812989
             1.9622572    0.23472187088125
            0.44453796    0.81377028525955
 s    1 1.00
            0.12194962                   1
 p    1 1.00
                   0.8                   1

19 0
 s    3 1.00
             13.010701   0.033485484812989
             1.9622572    0.23472187088125
            0.44453796    0.81377028525955
 s    1 1.00
            0.12194962                   1
 p    1 1.00
                   0.8                   1

20 0
 s    5 1.00
          1712.8415853  -0.0054477995804909
          257.64812677  -0.040627174632423
          58.458245853   -0.18111962250584
          16.198367905   -0.46843975563173
          5.0052600809   -0.44616846289231
 s    1 1.00
         0.58731856571                   1
 s    1 1.00
         0.18764592253                   1
 p    3 1.00
          13.571470233  -0.058848116969522
          2.9257372874   -0.32024624762471
         0.79927750754   -0.75328226520436
 p    1 1.00
         0.21954348034                   1
 d    1 1.00
                     1                   1

21 0
 s    3 1.00
             13.010701   0.033485484812989
             1.9622572    0.23472187088125
            0.44453796    0.81377028525955
 s    1 1.00
            0.12194962                   1
 p    1 1.00
                   0.8                   1

22 0
 s    3 1.00
             13.010701   0.033485484812989
             1.9622572    0.23472187088125
            0.44453796    0.81377028525955
 s    1 1.00
            0.12194962                   1
 p    1 1.00
                   0.8                   1

23 0
 s    3 1.00
             13.010701   0.033485484812989
             1.9622572    0.23472187088125
            0.44453796    0.81377028525955
 s    1 1.00
            0.12194962                   1
 p    1 1.00
                   0.8                   1

24 0
 s    5 1.00
          1712.8415853  -0.0054477995804909
          257.64812677  -0.040627174632423
          58.458245853   -0.18111962250584
          16.198367905   -0.46843975563173
          5.0052600809   -0.44616846289231
 s    1 1.00
         0.58731856571                   1
 s    1 1.00
         0.18764592253                   1
 p    3 1.00
          13.571470233  -0.058848116969522
          2.9257372874   -0.32024624762471
         0.79927750754   -0.75328226520436
 p    1 1.00
         0.21954348034                   1
 d    1 1.00
                     1                   1

25 0
 s    3 1.00
             13.010701   0.033485484812989
             1.9622572    0.23472187088125
            0.44453796    0.81377028525955
 s    1 1.00
            0.12194962                   1
 p    1 1.00
                   0.8                   1

26 0
 s    3 1.00
             13.010701   0.033485484812989
             1.9622572    0.23472187088125
            0.44453796    0.81377028525955
 s    1 1.00
            0.12194962                   1
 p    1 1.00
                   0.8                   1

27 0
 s    3 1.00
             13.010701   0.033485484812989
             1.9622572    0.23472187088125
            0.44453796    0.81377028525955
 s    1 1.00
            0.12194962                   1
 p    1 1.00
                   0.8                   1

28 0
 s    5 1.00
          1712.8415853  -0.0054477995804909
          257.64812677  -0.040627174632423
          58.458245853   -0.18111962250584
          16.198367905   -0.46843975563173
          5.0052600809   -0.44616846289231
 s    1 1.00
         0.58731856571                   1
 s    1 1.00
         0.18764592253                   1
 p    3 1.00
          13.571470233  -0.058848116969522
          2.9257372874   -0.32024624762471
         0.79927750754   -0.75328226520436
 p    1 1.00
         0.21954348034                   1
 d    1 1.00
                     1                   1

29 0
 s    3 1.00
             13.010701   0.033485484812989
             1.9622572    0.23472187088125
            0.44453796    0.81377028525955
 s    1 1.00
            0.12194962                   1
 p    1 1.00
                   0.8                   1

30 0
 s    3 1.00
             13.010701   0.033485484812989
             1.9622572    0.23472187088125
            0.44453796    0.81377028525955
 s    1 1.00
            0.12194962                   1
 p    1 1.00
                   0.8                   1

31 0
 s    3 1.00
             13.010701   0.033485484812989
             1.9622572    0.23472187088125
            0.44453796    0.81377028525955
 s    1 1.00
            0.12194962                   1
 p    1 1.00
                   0.8                   1

32 0
 s    5 1.00
          1712.8415853  -0.0054477995804909
          257.64812677  -0.040627174632423
          58.458245853   -0.18111962250584
          16.198367905   -0.46843975563173
          5.0052600809   -0.44616846289231
 s    1 1.00
         0.58731856571                   1
 s    1 1.00
         0.18764592253                   1
 p    3 1.00
          13.571470233  -0.058848116969522
          2.9257372874   -0.32024624762471
         0.79927750754   -0.75328226520436
 p    1 1.00
         0.21954348034                   1
 d    1 1.00
                     1                   1

33 0
 s    3 1.00
             13.010701   0.033485484812989
             1.9622572    0.23472187088125
            0.44453796    0.81377028525955
 s    1 1.00
            0.12194962                   1
 p    1 1.00
                   0.8                   1

34 0
 s    3 1.00
             13.010701   0.033485484812989
             1.9622572    0.23472187088125
            0.44453796    0.81377028525955
 s    1 1.00
            0.12194962                   1
 p    1 1.00
                   0.8                   1

35 0
 s    3 1.00
             13.010701   0.033485484812989
             1.9622572    0.23472187088125
            0.44453796    0.81377028525955
 s    1 1.00
            0.12194962                   1
 p    1 1.00
                   0.8                   1

36 0
 s    5 1.00
          1712.8415853  -0.0054477995804909
          257.64812677  -0.040627174632423
          58.458245853   -0.18111962250584
          16.198367905   -0.46843975563173
          5.0052600809   -0.44616846289231
 s    1 1.00
         0.58731856571                   1
 s    1 1.00
         0.18764592253                   1
 p    3 1.00
          13.571470233  -0.058848116969522
          2.9257372874   -0.32024624762471
         0.79927750754   -0.75328226520436
 p    1 1.00
         0.21954348034                   1
 d    1 1.00
                     1                   1

37 0
 s    3 1.00
             13.010701   0.033485484812989
             1.9622572    0.23472187088125
            0.44453796    0.81377028525955
 s    1 1.00
            0.12194962                   1
 p    1 1.00
                   0.8                   1

38 0
 s    3 1.00
             13.010701   0.033485484812989
             1.9622572    0.23472187088125
            0.44453796    0.81377028525955
 s    1 1.00
            0.12194962                   1
 p    1 1.00
                   0.8                   1

39 0
 s    3 1.00
             13.010701   0.033485484812989
             1.9622572    0.23472187088125
            0.44453796    0.81377028525955
 s    1 1.00
            0.12194962                   1
 p    1 1.00
                   0.8                   1

40 0
 s    5 1.00
          1712.8415853  -0.0054477995804909
          257.64812677  -0.040627174632423
          58.458245853   -0.18111962250584
          16.198367905   -0.46843975563173
          5.0052600809   -0.44616846289231
 s    1 1.00
         0.58731856571                   1
 s    1 1.00
         0.18764592253                   1
 p    3 1.00
          13.571470233  -0.058848116969522
          2.9257372874   -0.32024624762471
         0.79927750754   -0.75328226520436
 p    1 1.00
         0.21954348034                   1
 d    1 1.00
                     1                   1

41 0
 s    3 1.00
             13.010701   0.033485484812989
             1.9622572    0.23472187088125
            0.44453796    0.81377028525955
 s    1 1.00
            0.12194962                   1
 p    1 1.00
                   0.8                   1

42 0
 s    3 1.00
             13.010701   0.033485484812989
             1.9622572    0.23472187088125
            0.44453796    0.81377028525955
 s    1 1.00
            0.12194962                   1
 p    1 1.00
                   0.8                   1

43 0
 s    3 1.00
             13.010701   0.033485484812989
             1.9622572    0.23472187088125
            0.44453796    0.81377028525955
 s    1 1.00
            0.12194962                   1
 p    1 1.00
                   0.8                   1

[5d]
[7f]
[9g]

[MO]
 Sym= A
 Ene=               0
 Spin= Alpha
 Occup=    1.00000
   1    -0.0053239746189505
   2    0.0060112226279457
   3     -0.11612895416078
   4    0.0083417343323826
   5    0.0010224754640567
   6    -0.0016101256790789
   7    0.0024960318464971
   8    0.0016888313156088
   9     0.027510166231986
  10    -0.043212747109619
  11    -0.031315031724786
  12    -0.0070412584845067
  13     0.010839963114744
  14    0.0072812730765917
  15     0.014719133627961
  16     0.077682876980226
  17     -0.12289749562297
  18     0.049572887570352
  19      0.10472726844986
  20     0.012464965991311
  21     0.063927342683674
  22     -0.10113431252412
  23     0.040883129809519
  24     0.086702119399056
  25    -0.00095779973173417
  26    -0.00023397046118449
  27    0.00044334836920281
  28    -0.00071019637174557
  29    -0.0015467350112582
  30    0.0010787637092101
  31    9.8493177431167e-05
  32     0.002972121342655
  33    -0.0014486933216443
  34     0.071855867859409
  35    0.0029892440692124
  36    0.0032405753389285
  37    0.00017709645501485
  38    -0.00033586127483646
  39    -0.00036308209606324
  40     0.015636392329475
  41    -0.024439885267377
  42    -0.017574330459913
  43     0.000976525168277
  44    -0.0016741158938089
  45    -0.0014164950330327
  46    -3.2566892529121e-05
  47    -0.0010256863137711
  48    0.0016472840154666
  49    -0.00064502041008211
  50    -0.0012522816921848
  51    -0.0007844113797938
  52    -0.0041032641974468
  53    0.0064251863471179
  54    -0.0026192170757049
  55    -0.0055510523878498
  56    -0.00086365009449447
  57    -0.00022733552257422
  58    0.00036005391842154
  59    -0.00064192933774288
  60    -0.0013636865489682
  61    0.00097780555847639
  62    0.0001209717531604
  63      -0.1369268790234
  64     -0.21976163678703
  65     -0.13703444678137
  66    0.0022904366159258
  67    -0.0037688852885589
  68    -0.0030914649421215
  69    0.00042406623984333
  70    -0.00088562417443361
  71    -0.00097511449714313
  72    0.00047185096250511
  73    0.0025724182551294
  74    -0.0040686847438152
  75    0.0016469383991495
  76    0.0034810678490695
  77     0.032868787641789
  78     0.077563628506371
  79      0.06892922682663
  80      0.12564498268936
  81     0.059389886845484
  82     0.048095617645758
  83     -0.08436832887042
  84     -0.04225531447839
  85    -0.035071200635385
  86    0.00013728188994744
  87    -0.00022723993960316
  88    -0.00068013310202857
  89    0.00078336294606333
  90    -0.00015938709138771
  91    -0.014380074053113
  92    -0.0089012129698066
  93    -0.0018349518262241
  94    -0.0019160455136114
  95    -0.0026708718774124
  96    -0.019149433112099
  97    -0.0099702272965576
  98    -0.0042499253141321
  99    -0.0034683905881815
 100    0.0012131075142675
 101    -0.022738908655744
 102    -0.012239947772205
 103    -0.0045525922374705
 104    0.00079956412229832
 105    -0.0024866910751881
 106     0.032802526106479
 107     0.077343507463462
 108       0.0689867648519
 109    -0.0024902005650748
 110     0.099067690216454
 111     -0.11058857668393
 112    0.0013932335116037
 113    -0.068927503330382
 114     0.074200142407293
 115    0.0007200982317693
 116    0.0001512908410437
 117    7.2505898982326e-06
 118    0.00052477984721787
 119    0.0010594730748823
 120    -0.025139277148082
 121    -0.013715655063184
 122    -0.0024246621176199
 123    -0.0019540846064393
 124    0.0039505405712559
 125    -0.014499963551025
 126    -0.0090045362885154
 127    -0.00080381422007047
 128    -0.0039539061784191
 129    0.0012592339619597
 130    -0.017078009345123
 131    -0.009901381638874
 132     0.002921622521939
 133    -0.0020515326436738
 134    0.0042255368177153
 135     0.033037939298609
 136     0.077996926117233
 137     0.069335396404126
 138    -0.012609808306062
 139    -0.082874139756855
 140      0.12144135095004
 141    0.0092745546942848
 142     0.054090968566222
 143    -0.084846940638549
 144    -0.00056768428819143
 145    0.0007478298508747
 146    -0.00029771210223247
 147    -0.00040428660085546
 148    0.00022771410927021
 149    -0.014388056158572
 150    -0.0090558431173493
 151    0.00021223125416933
 152    0.00018761806584985
 153    -0.0037501592364841
 154    -0.022894135603362
 155    -0.012144924501032
 156    -0.0024843347067307
 157    0.0029470534796967
 158    -0.0035913076905688
 159     -0.01907572239461
 160    -0.0099913207038324
 161    0.0029891349775661
 162    0.0039820740052669
 163    -0.0026324050441178
 164     0.032784855243933
 165     0.077313438761491
 166     0.068815803986557
 167     -0.13682319631226
 168    -0.039617982988566
 169    -0.039830744183946
 170     0.094199163696185
 171     0.026087238714715
 172     0.025059859802379
 173    0.00067326163172045
 174    0.00031533308063294
 175    -9.8034741460339e-05
 176    -0.00036180168667301
 177    0.00091726160075613
 178     -0.01792777916019
 179    -0.010165264766751
 180     0.004062557948363
 181    -0.0005942629628752
 182    0.0038153596838552
 183    -0.014536397778102
 184    -0.0089876222571285
 185    0.0038148839498543
 186    0.00049914790386612
 187    -0.0010447664553754
 188    -0.024095488584958
 189    -0.013104170350828
 190    0.0033464635853961
 191      0.00389292434575
 192    0.00055098174198837
 193    -0.085553677187643
 194     -0.21470974798211
 195     -0.19445662919323
 196     -0.15186646422783
 197      0.23777814589387
 198      0.17466601808088
 199      0.11219224338897
 200     -0.17505215859805
 201     -0.12818430362793
 202    -1.4364534481247e-05
 203    0.00021656283503648
 204    -0.00042841646184314
 205    0.00016324024692933
 206    0.00033795456982404
 207      0.03303308457713
 208     0.021708984024478
 209    0.0029254820366906
 210     -0.00878482321112
 211    -0.0015540848147758
 212     0.033449399982743
 213     0.021889549691502
 214    0.0074185767365411
 215    -0.0039391015432853
 216    -0.004200991434552
 217     0.031502167120859
 218     0.021529828012033
 219    0.0014769309827219
 220    -0.0054946962184167
 221    -0.0074297917840242
 222    -0.0011659235427393
 223    -0.00061136920671086
 224    -0.00012621936264048
 225    0.0068982902805875
 226    0.0055614098492555
 227    0.0042024803028249
 228    -0.0023268385126333
 229    -0.0039033380798359
 230    -0.0025728055381028
 231    -0.00010090358878817
 232    0.00017684276252307
 233    7.4601402481231e-05
 234    -0.0001016137633683
 235    0.00010825284606608
 236     0.003917326267708
 237    0.00021804816855462
 238    -0.0004353257437163
 239    0.00040445693428392
 240    -6.161295503126e-05
 241    0.0027606867851067
 242    0.00060539070647526
 243    -0.00033568941815144
 244    -0.00032825597379743
 245    0.00026622974136287
 246    0.0003686342173143
 247    5.5425808550812e-05
 248    -0.00011860821500669
 249    -0.00017664217127855
 250    -0.00027217724112968
 251    -0.00098684632678204
 252    -0.00014867696980578
 253    0.00053996347660062
 254    -0.0014959171758429
 255    0.0078521571337965
 256    -0.0052013776565802
 257    0.0017888621290959
 258    -0.0045516647297703
 259    0.0012448748384747
 260    -0.00011630268648578
 261    -3.241561923521e-05
 262    -0.00019287882569185
 263    -7.0607882147317e-05
 264    -0.00016646080784839
 265    0.00030967049217787
 266    5.301424026735e-05
 267    -4.2155594281437e-05
 268    -0.00035286480515266
 269    5.3200678329077e-05
 270    0.0043054690857325
 271    0.00010933895381269
 272    -0.0004767640613068
 273    0.00016771876642158
 274    0.0003709067472749
 275    0.0024646861036397
 276    0.00059569722549396
 277    0.00037670967642365
 278    -6.417552349967e-05
 279    0.00036963289333291
 280     -0.00103667652333
 281    -0.00027422623730358
 282    0.00038538648315687
 283    -0.0095546768498312
 284    -0.00040380039297912
 285    -0.0010985798057019
 286    0.0048666109648774
 287    -0.0013531420736167
 288    -0.00027188745007229
 289    -0.00023414883183993
 290    3.369397097291e-05
 291    -2.9093814247875e-05
 292    0.00012933351953566
 293    -8.3418794061642e-05
 294    0.00033048325173775
 295    2.8473697255244e-05
 296    0.00033053581066445
 297    2.0390943492391e-05
 298    -0.00013629522678722
 299    0.0025201280096622
 300    0.00061469555518483
 301    0.00027587879316374
 302    -0.00015827624533624
 303    0.00043045683067873
 304    0.0042465340042589
 305    0.00017579089948162
 306    -2.6340811623861e-05
 307    0.00060783136913336
 308    0.0001312521922024
 309    -0.0011562750519205
 310    -0.00055329061431251
 311    -0.00027973906162735
 312    -0.0018728588055054
 313    -0.0035853905511312
 314    0.0089343204119456
 315    0.0017525098664906
 316    0.00051539913207136
 317    -0.0048023144115057
 318    0.00015683478533529
 319    -8.6365501097404e-05
 320    -0.0001167696404726
 321    0.00012979532718017
 322    1.5767608361944e-05
 323    0.00026974358098849
 324    -2.1526518805203e-05
 325    4.8052865007914e-05
 326    -3.2454799982029e-05
 327    -0.00033441758493802
 328    0.0030554473823178
 329    0.00069565168300763
 330    0.0003313009918378
 331    0.00044436997272136
 332    -6.6665681383474e-05
 333    0.0037839064097432
 334    0.00042337628780847
 335    -0.0004592028818653
 336    0.00035835070467835
 337    -0.0001214122245269
 338    0.0090971929547339
 339     0.022073870318877
 340     0.023271992966182
 341    -0.014997182930183
 342     0.023569085841297