[Molden Format]
made by pyscf v[2.2.1]
[Atoms] (AU)
Cr   1   24     1.56143912275337    -2.46507591990239    -1.82404491365355
Cr   2   24    -1.56139565905251     2.46513072196000     1.82399011159594
O   3   8     0.00002078698737     0.00002834589187    -0.00002645616574
N   4   7     5.12832174930954    -1.10581670549011    -0.60767356069801
H   5   1     6.65216855026694    -1.66292686427314    -1.66487895135981
H   6   1     5.63710405218294    -1.59213394419468     1.18765885421890
H   7   1     5.20084187906585     0.81566059741989    -0.65509245834172
N   8   7     1.71230729763415    -0.02251608677419    -4.99594076510539
H   9   1     0.29795878723855     1.27247165241550    -4.90823668593820
H   10   1     1.50271021425414    -0.85583806455427    -6.73026148236459
H   11   1     3.34039895052705     0.99863710888315    -5.18656310846864
N   12   7     1.41057094787259    -4.90763575303059     1.34785282752440
H   13   1     1.64193389675534    -6.79355407945465     0.97314659318890
H   14   1    -0.29048681014202    -4.81040367474334     2.24006056107205
H   15   1     2.72468082571676    -4.56691435331926     2.71738081369757
N   16   7    -2.00544350380280    -3.82433513431467    -3.04041437688297
H   17   1    -2.87205678671934    -5.05516478184926    -1.83221042023780
H   18   1    -2.03637832046193    -4.76397121413665    -4.73247136936628
H   19   1    -3.24475802163669    -2.37551046050250    -3.28123540501917
N   20   7     3.37923471211299    -5.33493873459111    -3.94755661599306
H   21   1     4.17102617885350    -4.76109883042731    -5.61685374703210
H   22   1     2.26176595533881    -6.82326057413281    -4.47610923358166
H   23   1     4.85383336053810    -6.19899521806112    -3.03922195969837
N   24   7    -5.12827828560868     1.10587339727385     0.60762064836653
H   25   1    -5.15408816501799    -0.81544705836782     0.54662784797006
H   26   1    -5.69743166898356     1.68113626520945    -1.14337690194197
H   27   1    -6.63528195761783     1.56841410187914     1.73267665553083
N   28   7    -1.71226383393328     0.02257088883181     4.99588785277390
H   29   1    -1.62991523860311     0.86667375415253     6.73575491620870
H   30   1    -0.22416876152653    -1.19157625647512     4.98456461383551
H   31   1    -3.28782110056328    -1.08746368536834     5.11339858210385
N   32   7     2.00548696750367     3.82438993637228     3.04035957482536
H   33   1     2.05186651577887     4.68410571893416     4.77402266739321
H   34   1     2.83712330958063     5.12208376337235     1.87805706574587
H   35   1     3.26582090902109     2.38241174030942     3.19051154350492
N   36   7    -1.41052748417173     4.90769055508820    -1.34790762958202
H   37   1    -1.75003190025884     6.78104976168840    -0.99229329828299
H   38   1    -2.65834387984003     4.49309409198925    -2.75785496783350
H   39   1     0.32278033988471     4.89894112313146    -2.18344058692784
N   40   7    -3.37919124841212     5.33499353664873     3.94750181393545
H   41   1    -2.26357064378777     6.83195331430581     4.45515784003860
H   42   1    -4.15358022727151     4.76963661305810     5.62761006813313
H   43   1    -4.86681766873998     6.18449345978121     3.04686590187224
[GTO]
1 0
 s    6 1.00
          51528.086349  0.0017695545768669
          7737.2103487   0.013556436258096
           1760.374847   0.067162645785071
          496.87706544    0.23295905918518
          161.46520598    0.47040576982722
          55.466352268    0.35733072606876
 s    3 1.00
          107.54732999   -0.10605255446629
          12.408671897    0.62543981484169
          5.0423628826    0.44878820793655
 s    3 1.00
          8.5461640165   -0.21819012081133
          1.3900441221    0.70422525667731
         0.56066602876    0.42488555412558
 s    1 1.00
        0.071483705972                   1
 s    1 1.00
        0.028250687604                   1
 p    5 1.00
          640.48536096  0.0093555063746755
          150.69711194   0.068993338492216
          47.503755296     0.2634118959318
          16.934120165    0.51034501651775
           6.240968059    0.33195512953954
 p    3 1.00
          3.0885463206    0.32917682676976
          1.1791047769    0.55491385190365
         0.43369774432    0.23818412855984
 p    1 1.00
              0.120675                   1
 d    4 1.00
          27.559479426   0.036950140313562
          7.4687020327    0.18821519783039
          2.4345903574    0.44641244239929
         0.78244754808     0.5681617303244
 d    1 1.00
         0.21995774311                   1
 f    1 1.00
                 1.147                   1

2 0
 s    6 1.00
          51528.086349  0.0017695545768669
          7737.2103487   0.013556436258096
           1760.374847   0.067162645785071
          496.87706544    0.23295905918518
          161.46520598    0.47040576982722
          55.466352268    0.35733072606876
 s    3 1.00
          107.54732999   -0.10605255446629
          12.408671897    0.62543981484169
          5.0423628826    0.44878820793655
 s    3 1.00
          8.5461640165   -0.21819012081133
          1.3900441221    0.70422525667731
         0.56066602876    0.42488555412558
 s    1 1.00
        0.071483705972                   1
 s    1 1.00
        0.028250687604                   1
 p    5 1.00
          640.48536096  0.0093555063746755
          150.69711194   0.068993338492216
          47.503755296     0.2634118959318
          16.934120165    0.51034501651775
           6.240968059    0.33195512953954
 p    3 1.00
          3.0885463206    0.32917682676976
          1.1791047769    0.55491385190365
         0.43369774432    0.23818412855984
 p    1 1.00
              0.120675                   1
 d    4 1.00
          27.559479426   0.036950140313562
          7.4687020327    0.18821519783039
          2.4345903574    0.44641244239929
         0.78244754808     0.5681617303244
 d    1 1.00
         0.21995774311                   1
 f    1 1.00
                 1.147                   1

3 0
 s    5 1.00
          2266.1767785  -0.0053893503921743
          340.87010191   -0.04023472138896
          77.363135167   -0.18008184205526
           21.47964494   -0.46828857657651
          6.6589433124   -0.44692617160187
 s    1 1.00
         0.80975975668                   1
 s    1 1.00
         0.25530772234                   1
 p    3 1.00
          17.721504317   0.062630248763161
           3.863550544    0.33331138482352
          1.0480920883    0.74148638308122
 p    1 1.00
         0.27641544411                   1
 d    1 1.00
                   1.2                   1

4 0
 s    5 1.00
          1712.8415853  -0.0054477995804909
          257.64812677  -0.040627174632423
          58.458245853   -0.18111962250584
          16.198367905   -0.46843975563173
          5.0052600809   -0.44616846289231
 s    1 1.00
         0.58731856571                   1
 s    1 1.00
         0.18764592253                   1
 p    3 1.00
          13.571470233  -0.058848116969522
          2.9257372874   -0.32024624762471
         0.79927750754   -0.75328226520436
 p    1 1.00
         0.21954348034                   1
 d    1 1.00
                     1                   1

5 0
 s    3 1.00
             13.010701   0.033485484812989
             1.9622572    0.23472187088125
            0.44453796    0.81377028525955
 s    1 1.00
            0.12194962                   1
 p    1 1.00
                   0.8                   1

6 0
 s    3 1.00
             13.010701   0.033485484812989
             1.9622572    0.23472187088125
            0.44453796    0.81377028525955
 s    1 1.00
            0.12194962                   1
 p    1 1.00
                   0.8                   1

7 0
 s    3 1.00
             13.010701   0.033485484812989
             1.9622572    0.23472187088125
            0.44453796    0.81377028525955
 s    1 1.00
            0.12194962                   1
 p    1 1.00
                   0.8                   1

8 0
 s    5 1.00
          1712.8415853  -0.0054477995804909
          257.64812677  -0.040627174632423
          58.458245853   -0.18111962250584
          16.198367905   -0.46843975563173
          5.0052600809   -0.44616846289231
 s    1 1.00
         0.58731856571                   1
 s    1 1.00
         0.18764592253                   1
 p    3 1.00
          13.571470233  -0.058848116969522
          2.9257372874   -0.32024624762471
         0.79927750754   -0.75328226520436
 p    1 1.00
         0.21954348034                   1
 d    1 1.00
                     1                   1

9 0
 s    3 1.00
             13.010701   0.033485484812989
             1.9622572    0.23472187088125
            0.44453796    0.81377028525955
 s    1 1.00
            0.12194962                   1
 p    1 1.00
                   0.8                   1

10 0
 s    3 1.00
             13.010701   0.033485484812989
             1.9622572    0.23472187088125
            0.44453796    0.81377028525955
 s    1 1.00
            0.12194962                   1
 p    1 1.00
                   0.8                   1

11 0
 s    3 1.00
             13.010701   0.033485484812989
             1.9622572    0.23472187088125
            0.44453796    0.81377028525955
 s    1 1.00
            0.12194962                   1
 p    1 1.00
                   0.8                   1

12 0
 s    5 1.00
          1712.8415853  -0.0054477995804909
          257.64812677  -0.040627174632423
          58.458245853   -0.18111962250584
          16.198367905   -0.46843975563173
          5.0052600809   -0.44616846289231
 s    1 1.00
         0.58731856571                   1
 s    1 1.00
         0.18764592253                   1
 p    3 1.00
          13.571470233  -0.058848116969522
          2.9257372874   -0.32024624762471
         0.79927750754   -0.75328226520436
 p    1 1.00
         0.21954348034                   1
 d    1 1.00
                     1                   1

13 0
 s    3 1.00
             13.010701   0.033485484812989
             1.9622572    0.23472187088125
            0.44453796    0.81377028525955
 s    1 1.00
            0.12194962                   1
 p    1 1.00
                   0.8                   1

14 0
 s    3 1.00
             13.010701   0.033485484812989
             1.9622572    0.23472187088125
            0.44453796    0.81377028525955
 s    1 1.00
            0.12194962                   1
 p    1 1.00
                   0.8                   1

15 0
 s    3 1.00
             13.010701   0.033485484812989
             1.9622572    0.23472187088125
            0.44453796    0.81377028525955
 s    1 1.00
            0.12194962                   1
 p    1 1.00
                   0.8                   1

16 0
 s    5 1.00
          1712.8415853  -0.0054477995804909
          257.64812677  -0.040627174632423
          58.458245853   -0.18111962250584
          16.198367905   -0.46843975563173
          5.0052600809   -0.44616846289231
 s    1 1.00
         0.58731856571                   1
 s    1 1.00
         0.18764592253                   1
 p    3 1.00
          13.571470233  -0.058848116969522
          2.9257372874   -0.32024624762471
         0.79927750754   -0.75328226520436
 p    1 1.00
         0.21954348034                   1
 d    1 1.00
                     1                   1

17 0
 s    3 1.00
             13.010701   0.033485484812989
             1.9622572    0.23472187088125
            0.44453796    0.81377028525955
 s    1 1.00
            0.12194962                   1
 p    1 1.00
                   0.8                   1

18 0
 s    3 1.00
             13.010701   0.033485484812989
             1.9622572    0.23472187088125
            0.44453796    0.81377028525955
 s    1 1.00
            0.12194962                   1
 p    1 1.00
                   0.8                   1

19 0
 s    3 1.00
             13.010701   0.033485484812989
             1.9622572    0.23472187088125
            0.44453796    0.81377028525955
 s    1 1.00
            0.12194962                   1
 p    1 1.00
                   0.8                   1

20 0
 s    5 1.00
          1712.8415853  -0.0054477995804909
          257.64812677  -0.040627174632423
          58.458245853   -0.18111962250584
          16.198367905   -0.46843975563173
          5.0052600809   -0.44616846289231
 s    1 1.00
         0.58731856571                   1
 s    1 1.00
         0.18764592253                   1
 p    3 1.00
          13.571470233  -0.058848116969522
          2.9257372874   -0.32024624762471
         0.79927750754   -0.75328226520436
 p    1 1.00
         0.21954348034                   1
 d    1 1.00
                     1                   1

21 0
 s    3 1.00
             13.010701   0.033485484812989
             1.9622572    0.23472187088125
            0.44453796    0.81377028525955
 s    1 1.00
            0.12194962                   1
 p    1 1.00
                   0.8                   1

22 0
 s    3 1.00
             13.010701   0.033485484812989
             1.9622572    0.23472187088125
            0.44453796    0.81377028525955
 s    1 1.00
            0.12194962                   1
 p    1 1.00
                   0.8                   1

23 0
 s    3 1.00
             13.010701   0.033485484812989
             1.9622572    0.23472187088125
            0.44453796    0.81377028525955
 s    1 1.00
            0.12194962                   1
 p    1 1.00
                   0.8                   1

24 0
 s    5 1.00
          1712.8415853  -0.0054477995804909
          257.64812677  -0.040627174632423
          58.458245853   -0.18111962250584
          16.198367905   -0.46843975563173
          5.0052600809   -0.44616846289231
 s    1 1.00
         0.58731856571                   1
 s    1 1.00
         0.18764592253                   1
 p    3 1.00
          13.571470233  -0.058848116969522
          2.9257372874   -0.32024624762471
         0.79927750754   -0.75328226520436
 p    1 1.00
         0.21954348034                   1
 d    1 1.00
                     1                   1

25 0
 s    3 1.00
             13.010701   0.033485484812989
             1.9622572    0.23472187088125
            0.44453796    0.81377028525955
 s    1 1.00
            0.12194962                   1
 p    1 1.00
                   0.8                   1

26 0
 s    3 1.00
             13.010701   0.033485484812989
             1.9622572    0.23472187088125
            0.44453796    0.81377028525955
 s    1 1.00
            0.12194962                   1
 p    1 1.00
                   0.8                   1

27 0
 s    3 1.00
             13.010701   0.033485484812989
             1.9622572    0.23472187088125
            0.44453796    0.81377028525955
 s    1 1.00
            0.12194962                   1
 p    1 1.00
                   0.8                   1

28 0
 s    5 1.00
          1712.8415853  -0.0054477995804909
          257.64812677  -0.040627174632423
          58.458245853   -0.18111962250584
          16.198367905   -0.46843975563173
          5.0052600809   -0.44616846289231
 s    1 1.00
         0.58731856571                   1
 s    1 1.00
         0.18764592253                   1
 p    3 1.00
          13.571470233  -0.058848116969522
          2.9257372874   -0.32024624762471
         0.79927750754   -0.75328226520436
 p    1 1.00
         0.21954348034                   1
 d    1 1.00
                     1                   1

29 0
 s    3 1.00
             13.010701   0.033485484812989
             1.9622572    0.23472187088125
            0.44453796    0.81377028525955
 s    1 1.00
            0.12194962                   1
 p    1 1.00
                   0.8                   1

30 0
 s    3 1.00
             13.010701   0.033485484812989
             1.9622572    0.23472187088125
            0.44453796    0.81377028525955
 s    1 1.00
            0.12194962                   1
 p    1 1.00
                   0.8                   1

31 0
 s    3 1.00
             13.010701   0.033485484812989
             1.9622572    0.23472187088125
            0.44453796    0.81377028525955
 s    1 1.00
            0.12194962                   1
 p    1 1.00
                   0.8                   1

32 0
 s    5 1.00
          1712.8415853  -0.0054477995804909
          257.64812677  -0.040627174632423
          58.458245853   -0.18111962250584
          16.198367905   -0.46843975563173
          5.0052600809   -0.44616846289231
 s    1 1.00
         0.58731856571                   1
 s    1 1.00
         0.18764592253                   1
 p    3 1.00
          13.571470233  -0.058848116969522
          2.9257372874   -0.32024624762471
         0.79927750754   -0.75328226520436
 p    1 1.00
         0.21954348034                   1
 d    1 1.00
                     1                   1

33 0
 s    3 1.00
             13.010701   0.033485484812989
             1.9622572    0.23472187088125
            0.44453796    0.81377028525955
 s    1 1.00
            0.12194962                   1
 p    1 1.00
                   0.8                   1

34 0
 s    3 1.00
             13.010701   0.033485484812989
             1.9622572    0.23472187088125
            0.44453796    0.81377028525955
 s    1 1.00
            0.12194962                   1
 p    1 1.00
                   0.8                   1

35 0
 s    3 1.00
             13.010701   0.033485484812989
             1.9622572    0.23472187088125
            0.44453796    0.81377028525955
 s    1 1.00
            0.12194962                   1
 p    1 1.00
                   0.8                   1

36 0
 s    5 1.00
          1712.8415853  -0.0054477995804909
          257.64812677  -0.040627174632423
          58.458245853   -0.18111962250584
          16.198367905   -0.46843975563173
          5.0052600809   -0.44616846289231
 s    1 1.00
         0.58731856571                   1
 s    1 1.00
         0.18764592253                   1
 p    3 1.00
          13.571470233  -0.058848116969522
          2.9257372874   -0.32024624762471
         0.79927750754   -0.75328226520436
 p    1 1.00
         0.21954348034                   1
 d    1 1.00
                     1                   1

37 0
 s    3 1.00
             13.010701   0.033485484812989
             1.9622572    0.23472187088125
            0.44453796    0.81377028525955
 s    1 1.00
            0.12194962                   1
 p    1 1.00
                   0.8                   1

38 0
 s    3 1.00
             13.010701   0.033485484812989
             1.9622572    0.23472187088125
            0.44453796    0.81377028525955
 s    1 1.00
            0.12194962                   1
 p    1 1.00
                   0.8                   1

39 0
 s    3 1.00
             13.010701   0.033485484812989
             1.9622572    0.23472187088125
            0.44453796    0.81377028525955
 s    1 1.00
            0.12194962                   1
 p    1 1.00
                   0.8                   1

40 0
 s    5 1.00
          1712.8415853  -0.0054477995804909
          257.64812677  -0.040627174632423
          58.458245853   -0.18111962250584
          16.198367905   -0.46843975563173
          5.0052600809   -0.44616846289231
 s    1 1.00
         0.58731856571                   1
 s    1 1.00
         0.18764592253                   1
 p    3 1.00
          13.571470233  -0.058848116969522
          2.9257372874   -0.32024624762471
         0.79927750754   -0.75328226520436
 p    1 1.00
         0.21954348034                   1
 d    1 1.00
                     1                   1

41 0
 s    3 1.00
             13.010701   0.033485484812989
             1.9622572    0.23472187088125
            0.44453796    0.81377028525955
 s    1 1.00
            0.12194962                   1
 p    1 1.00
                   0.8                   1

42 0
 s    3 1.00
             13.010701   0.033485484812989
             1.9622572    0.23472187088125
            0.44453796    0.81377028525955
 s    1 1.00
            0.12194962                   1
 p    1 1.00
                   0.8                   1

43 0
 s    3 1.00
             13.010701   0.033485484812989
             1.9622572    0.23472187088125
            0.44453796    0.81377028525955
 s    1 1.00
            0.12194962                   1
 p    1 1.00
                   0.8                   1

[5d]
[7f]
[9g]

[MO]
 Sym= A
 Ene=               0
 Spin= Alpha
 Occup=    1.00000
   1    0.0068278352471656
   2    -0.0087533135931657
   3      0.13922359640072
   4     0.015462895372963
   5    -0.014110041838576
   6       0.0105452751111
   7    -0.016643335938352
   8    -0.012306442515669
   9     -0.06207622658062
  10     0.097981350344603
  11     0.072443510271241
  12    0.00031144154843425
  13    -0.00046842562398854
  14    -0.00026712034093107
  15    0.00052469135627847
  16    0.0021953899345085
  17    -0.0034789050660894
  18    0.0014012374475634
  19    0.0030445729777968
  20    0.00021896404085126
  21    0.0010257280762791
  22    -0.001745336415339
  23    0.00077619272399049
  24    0.0015224361692832
  25    -0.00051034122872692
  26    -0.00011895843199565
  27    0.0002223975368504
  28    -0.00037118163559492
  29    -0.00081907505130072
  30    0.00057465932618803
  31    6.1674865463236e-05
  32    -0.017413165256563
  33     0.043660510041115
  34     -0.30945308939871
  35     0.028154790969919
  36     0.005511875002331
  37     0.043390664319234
  38     -0.06854926656205
  39    -0.050752619847775
  40     -0.23054898040316
  41      0.36412544951983
  42      0.26949472358041
  43    0.0029407269738708
  44    -0.0057773043193502
  45    -0.0056754908238348
  46    -0.0055960681174636
  47    -0.029386593687248
  48     0.044036192317874
  49    -0.017743802972355
  50    -0.037274032665892
  51    -0.003175243368041
  52    -0.020564995777344
  53     0.032164985581458
  54     -0.01292741420096
  55    -0.026571240364718
  56    0.0011668885841895
  57    0.00028745128246719
  58    -0.00048075706851357
  59    0.00085278407893666
  60    0.0018585353552607
  61    -0.0013224434389418
  62    -0.00014795456021337
  63     -0.46619551288916
  64      0.12425028022221
  65     0.061124920092909
  66    0.0070496093171713
  67    -0.011271891940358
  68    -0.0083477026514379
  69    0.0094638226385087
  70    -0.014871732350995
  71    -0.010932076915792
  72    -0.00020548923292876
  73    -0.0012122650370817
  74    0.0019203858523685
  75    -0.00077849714583385
  76    -0.0016128925953664
  77    0.0036969456568708
  78     0.011136301844048
  79     0.014828598647381
  80     0.019913115601291
  81    0.0099255725359152
  82    0.0068684126380154
  83    -0.017901080704151
  84    -0.0072786234235165
  85    -0.0061365041905757
  86    -0.00015594677480396
  87    0.00014764148137039
  88    -9.3634154611748e-05
  89    0.00039301914989141
  90    0.00010939568647315
  91    -0.0026825333253059
  92    0.0012053703844216
  93    -8.207711733897e-05
  94    -0.00013771727207637
  95    -8.3926655565448e-05
  96    -0.0026818367912423
  97    -0.00032024126407276
  98    -0.00021873366332575
  99    -0.00040747017780112
 100    5.4964984669803e-05
 101    -0.0047460493422784
 102    -0.0030348194839791
 103    -0.00017126889942273
 104    0.00024013180328431
 105    -0.00035665124082517
 106    0.0034722691508591
 107      0.01044018366724
 108     0.015147556450859
 109    -0.0020766270209749
 110     0.016386892109604
 111    -0.017534935564409
 112    -0.00033796459906933
 113    -0.013069352233457
 114     0.016128965668299
 115    0.00035574386296276
 116    -7.9631519075722e-05
 117    -0.00030073086728329
 118    1.7211136195524e-05
 119    0.00019948110613717
 120    -0.0064820738952255
 121    -0.0041045114933111
 122    -0.00046884681526664
 123    3.1815125505524e-05
 124    0.00014522203543177
 125    -0.0025521636964104
 126    0.0010716177644858
 127    8.4669783905542e-05
 128    -0.00026532621863574
 129    6.0725869660896e-05
 130    -0.0022649043807657
 131    0.00042289099809655
 132    0.00029629434615156
 133    -0.0003099143427425
 134    0.00023496983205954
 135    0.0036996738016834
 136     0.011145549933628
 137     0.014780242357802
 138    -0.0028096897513849
 139    -0.013373093976529
 140     0.018852746092277
 141    0.0011461764533079
 142     0.012180874021111
 143    -0.016221416279568
 144    9.6322302313013e-06
 145    0.00014653945978367
 146    -0.00040601946178431
 147    -0.00019730479696225
 148    2.1578093499379e-06
 149    -0.0026786395922293
 150    0.0012146641284048
 151    6.6406720852077e-05
 152    1.8946916154142e-05
 153    -0.00015801183449157
 154    -0.0047942894184915
 155    -0.0029049134959763
 156    -0.00038640741358857
 157    -1.7984547846634e-06
 158    -0.00023954297617084
 159    -0.0026550433882203
 160    -0.00034108684374764
 161    0.00034534999337767
 162     0.000179462484891
 163    -0.00024499552565633
 164    0.0036159603204477
 165      0.01092086862921
 166     0.014783151044362
 167    -0.022072921953686
 168    -0.0052740356579074
 169    -0.0070778215974161
 170     0.018659746665783
 171    0.0063976190588516
 172    0.0060628486039018
 173    -3.9234725854546e-05
 174     0.000253504443825
 175    9.326299867755e-05
 176    8.2804392395701e-05
 177    0.0004102915483191
 178    -0.0023929955278167
 179    8.7501723073689e-05
 180    0.00039192196127906
 181    -0.00017458286627911
 182    0.00022056812029779
 183    -0.0026526060053544
 184    0.00096954082240852
 185    0.00021736131474815
 186    -5.9689897543404e-05
 187    -2.7226623456043e-05
 188    -0.0055748098501601
 189    -0.0031826358562176
 190    0.00010075946619189
 191    0.00040234784168002
 192    -0.00019304142823236
 193    -0.0064541689336813
 194     -0.01707798102022
 195    -0.022099570610124
 196     -0.01016558100674
 197     0.015927247433202
 198     0.011667053347102
 199    0.0086487329931294
 200    -0.013662366214741
 201    -0.010119649742895
 202    8.9566344882036e-06
 203    6.8864360247723e-05
 204    -0.0001132125142028
 205    4.5324808258331e-05
 206    9.7111162571583e-05
 207    0.0014287678293921
 208    0.0029446432541758
 209    0.00020325583803326
 210    -0.0004106133329882
 211    -0.00013248021375673
 212    0.0014821139111109
 213     0.002898727159709
 214    0.00033299256853185
 215    -0.00027543071238379
 216    -0.00020575978396489
 217     0.001438628000259
 218    0.0029798557794966
 219    0.00012704770488273
 220    -0.00030311122352043
 221    -0.0003197895358935
 222    -0.014492015252949
 223     0.010289647474775
 224    -0.019190998539663
 225      0.08782073560363
 226    -0.030272115998479
 227    -0.015236132941786
 228    -0.059408651527066
 229     0.014131507599589
 230     0.007528638880651
 231    0.00078704127065015
 232    -0.0018413170706137
 233    0.00052899228110547
 234    0.0022816209903739
 235    -0.00098024878930662
 236     -0.02321966121793
 237    -0.0067226013493405
 238    -0.0032637444646818
 239    -0.0015151260049764
 240    -0.00022142673085001
 241     0.016801299318292
 242    0.0019461885365228
 243    -0.0021237863757636
 244    -0.00035717077714673
 245    0.0028548546886568
 246     0.067774452872818
 247     0.011751900832828
 248    0.0048027690370008
 249    -0.00097931593951141
 250    -0.0045536222009316
 251    -0.014787185238105
 252    0.0093342280218509
 253    -0.018006251287289
 254     0.038022810366546
 255    -0.011142729222661
 256    -0.086838232116988
 257    -0.021279584703625
 258    0.0019461955169199
 259     0.057259984396392
 260    0.0021826098032811
 261    -3.9831048331235e-05
 262    0.0016162596074896
 263    -0.00053527811311481
 264     0.001654890452906
 265      0.06507209664885
 266     0.011687821835029
 267    -0.001576623475421
 268    -0.0030823666302589
 269    -0.0055184035732763
 270    -0.029118484138747
 271    -0.0081777354904272
 272    0.0009273342554135
 273    -0.0022903871896315
 274    0.0030319476252341
 275     0.023495759610761
 276    0.0037264629126772
 277    0.0020636024536332
 278    0.0020990128278244
 279    0.0026202906910419
 280    -0.014694630644405
 281    0.0095770885310049
 282    -0.017917176645959
 283    -0.024294946668207
 284    -0.074567148627252
 285    -0.053766098912518
 286     0.021288316299659
 287     0.045280004689589
 288     0.034866632442638
 289    0.0023148045586025
 290    -0.00030035408902353
 291    0.0016201087990332
 292    -0.00040944654340203
 293    0.0014688916756687
 294      0.06554616224616
 295     0.011748931566524
 296    3.3081444244977e-05
 297    -0.0016912936002549
 298    -0.0063308656842914
 299     0.022242391771762
 300    0.0034370278471573
 301    -0.00031206496106483
 302    -0.00023886141916229
 303    0.0038672457129051
 304     -0.02818766289936
 305    -0.0080238481047204
 306    0.0034421490116625
 307    0.0004356819581528
 308    0.0017000475619009
 309    -0.014319696953542
 310     0.010737431518879
 311    -0.019535029518725
 312     0.030645146206402
 313    -0.086757043293725
 314     0.014758938120205
 315    -0.017021711236054
 316     0.056967861883065
 317     -0.01493256940036
 318    -0.00091777982849527
 319    0.00048648065669575
 320    0.00082317834301874
 321    -0.0027898484439143
 322    -0.00088070880990572
 323     0.069639789601193
 324     0.011972181807737
 325    0.00062179673601522
 326    -0.0066028934392317
 327    -0.0016314558191173
 328     0.009616922075655
 329    0.00074035686792702
 330     0.000624112687049
 331    0.0032658489384237
 332    0.00046314391121149
 333    -0.016926086533588
 334    -0.0052067971876006
 335    0.00019140697910476
 336    0.0028213338180303
 337    -0.0018750957194844
 338     0.042483906253422
 339      0.17510045890115
 340      0.10583345321752
 341    -0.044872571681315
 342     0.070844235947616
 343     0.052403084741919