[Molden Format]
made by pyscf v[2.0.1]
[Atoms] (AU)
Cr   1   24     1.56143912275337    -2.46507591990239    -1.82404491365355
Cr   2   24    -1.56139565905251     2.46513072196000     1.82399011159594
O   3   8     0.00002078698737     0.00002834589187    -0.00002645616574
N   4   7     5.12832174930954    -1.10581670549011    -0.60767356069801
H   5   1     6.65216855026694    -1.66292686427314    -1.66487895135981
H   6   1     5.63710405218294    -1.59213394419468     1.18765885421890
H   7   1     5.20084187906585     0.81566059741989    -0.65509245834172
N   8   7     1.71230729763415    -0.02251608677419    -4.99594076510539
H   9   1     0.29795878723855     1.27247165241550    -4.90823668593820
H   10   1     1.50271021425414    -0.85583806455427    -6.73026148236459
H   11   1     3.34039895052705     0.99863710888315    -5.18656310846864
N   12   7     1.41057094787259    -4.90763575303059     1.34785282752440
H   13   1     1.64193389675534    -6.79355407945465     0.97314659318890
H   14   1    -0.29048681014202    -4.81040367474334     2.24006056107205
H   15   1     2.72468082571676    -4.56691435331926     2.71738081369757
N   16   7    -2.00544350380280    -3.82433513431467    -3.04041437688297
H   17   1    -2.87205678671934    -5.05516478184926    -1.83221042023780
H   18   1    -2.03637832046193    -4.76397121413665    -4.73247136936628
H   19   1    -3.24475802163669    -2.37551046050250    -3.28123540501917
N   20   7     3.37923471211299    -5.33493873459111    -3.94755661599306
H   21   1     4.17102617885350    -4.76109883042731    -5.61685374703210
H   22   1     2.26176595533881    -6.82326057413281    -4.47610923358166
H   23   1     4.85383336053810    -6.19899521806112    -3.03922195969837
N   24   7    -5.12827828560868     1.10587339727385     0.60762064836653
H   25   1    -5.15408816501799    -0.81544705836782     0.54662784797006
H   26   1    -5.69743166898356     1.68113626520945    -1.14337690194197
H   27   1    -6.63528195761783     1.56841410187914     1.73267665553083
N   28   7    -1.71226383393328     0.02257088883181     4.99588785277390
H   29   1    -1.62991523860311     0.86667375415253     6.73575491620870
H   30   1    -0.22416876152653    -1.19157625647512     4.98456461383551
H   31   1    -3.28782110056328    -1.08746368536834     5.11339858210385
N   32   7     2.00548696750367     3.82438993637228     3.04035957482536
H   33   1     2.05186651577887     4.68410571893416     4.77402266739321
H   34   1     2.83712330958063     5.12208376337235     1.87805706574587
H   35   1     3.26582090902109     2.38241174030942     3.19051154350492
N   36   7    -1.41052748417173     4.90769055508820    -1.34790762958202
H   37   1    -1.75003190025884     6.78104976168840    -0.99229329828299
H   38   1    -2.65834387984003     4.49309409198925    -2.75785496783350
H   39   1     0.32278033988471     4.89894112313146    -2.18344058692784
N   40   7    -3.37919124841212     5.33499353664873     3.94750181393545
H   41   1    -2.26357064378777     6.83195331430581     4.45515784003860
H   42   1    -4.15358022727151     4.76963661305810     5.62761006813313
H   43   1    -4.86681766873998     6.18449345978121     3.04686590187224
[GTO]
1 0
 s    6 1.00
          51528.086349  0.0017695545768669
          7737.2103487   0.013556436258096
           1760.374847   0.067162645785071
          496.87706544    0.23295905918518
          161.46520598    0.47040576982722
          55.466352268    0.35733072606876
 s    3 1.00
          107.54732999   -0.10605255446629
          12.408671897    0.62543981484169
          5.0423628826    0.44878820793655
 s    3 1.00
          8.5461640165   -0.21819012081133
          1.3900441221    0.70422525667731
         0.56066602876    0.42488555412558
 s    1 1.00
        0.071483705972                   1
 s    1 1.00
        0.028250687604                   1
 p    5 1.00
          640.48536096  0.0093555063746755
          150.69711194   0.068993338492216
          47.503755296     0.2634118959318
          16.934120165    0.51034501651775
           6.240968059    0.33195512953954
 p    3 1.00
          3.0885463206    0.32917682676976
          1.1791047769    0.55491385190365
         0.43369774432    0.23818412855984
 p    1 1.00
              0.120675                   1
 d    4 1.00
          27.559479426   0.036950140313562
          7.4687020327    0.18821519783039
          2.4345903574    0.44641244239929
         0.78244754808     0.5681617303244
 d    1 1.00
         0.21995774311                   1
 f    1 1.00
                 1.147                   1

2 0
 s    6 1.00
          51528.086349  0.0017695545768669
          7737.2103487   0.013556436258096
           1760.374847   0.067162645785071
          496.87706544    0.23295905918518
          161.46520598    0.47040576982722
          55.466352268    0.35733072606876
 s    3 1.00
          107.54732999   -0.10605255446629
          12.408671897    0.62543981484169
          5.0423628826    0.44878820793655
 s    3 1.00
          8.5461640165   -0.21819012081133
          1.3900441221    0.70422525667731
         0.56066602876    0.42488555412558
 s    1 1.00
        0.071483705972                   1
 s    1 1.00
        0.028250687604                   1
 p    5 1.00
          640.48536096  0.0093555063746755
          150.69711194   0.068993338492216
          47.503755296     0.2634118959318
          16.934120165    0.51034501651775
           6.240968059    0.33195512953954
 p    3 1.00
          3.0885463206    0.32917682676976
          1.1791047769    0.55491385190365
         0.43369774432    0.23818412855984
 p    1 1.00
              0.120675                   1
 d    4 1.00
          27.559479426   0.036950140313562
          7.4687020327    0.18821519783039
          2.4345903574    0.44641244239929
         0.78244754808     0.5681617303244
 d    1 1.00
         0.21995774311                   1
 f    1 1.00
                 1.147                   1

3 0
 s    5 1.00
          2266.1767785  -0.0053893503921743
          340.87010191   -0.04023472138896
          77.363135167   -0.18008184205526
           21.47964494   -0.46828857657651
          6.6589433124   -0.44692617160187
 s    1 1.00
         0.80975975668                   1
 s    1 1.00
         0.25530772234                   1
 p    3 1.00
          17.721504317   0.062630248763161
           3.863550544    0.33331138482352
          1.0480920883    0.74148638308122
 p    1 1.00
         0.27641544411                   1
 d    1 1.00
                   1.2                   1

4 0
 s    5 1.00
          1712.8415853  -0.0054477995804909
          257.64812677  -0.040627174632423
          58.458245853   -0.18111962250584
          16.198367905   -0.46843975563173
          5.0052600809   -0.44616846289231
 s    1 1.00
         0.58731856571                   1
 s    1 1.00
         0.18764592253                   1
 p    3 1.00
          13.571470233  -0.058848116969522
          2.9257372874   -0.32024624762471
         0.79927750754   -0.75328226520436
 p    1 1.00
         0.21954348034                   1
 d    1 1.00
                     1                   1

5 0
 s    3 1.00
             13.010701   0.033485484812989
             1.9622572    0.23472187088125
            0.44453796    0.81377028525955
 s    1 1.00
            0.12194962                   1
 p    1 1.00
                   0.8                   1

6 0
 s    3 1.00
             13.010701   0.033485484812989
             1.9622572    0.23472187088125
            0.44453796    0.81377028525955
 s    1 1.00
            0.12194962                   1
 p    1 1.00
                   0.8                   1

7 0
 s    3 1.00
             13.010701   0.033485484812989
             1.9622572    0.23472187088125
            0.44453796    0.81377028525955
 s    1 1.00
            0.12194962                   1
 p    1 1.00
                   0.8                   1

8 0
 s    5 1.00
          1712.8415853  -0.0054477995804909
          257.64812677  -0.040627174632423
          58.458245853   -0.18111962250584
          16.198367905   -0.46843975563173
          5.0052600809   -0.44616846289231
 s    1 1.00
         0.58731856571                   1
 s    1 1.00
         0.18764592253                   1
 p    3 1.00
          13.571470233  -0.058848116969522
          2.9257372874   -0.32024624762471
         0.79927750754   -0.75328226520436
 p    1 1.00
         0.21954348034                   1
 d    1 1.00
                     1                   1

9 0
 s    3 1.00
             13.010701   0.033485484812989
             1.9622572    0.23472187088125
            0.44453796    0.81377028525955
 s    1 1.00
            0.12194962                   1
 p    1 1.00
                   0.8                   1

10 0
 s    3 1.00
             13.010701   0.033485484812989
             1.9622572    0.23472187088125
            0.44453796    0.81377028525955
 s    1 1.00
            0.12194962                   1
 p    1 1.00
                   0.8                   1

11 0
 s    3 1.00
             13.010701   0.033485484812989
             1.9622572    0.23472187088125
            0.44453796    0.81377028525955
 s    1 1.00
            0.12194962                   1
 p    1 1.00
                   0.8                   1

12 0
 s    5 1.00
          1712.8415853  -0.0054477995804909
          257.64812677  -0.040627174632423
          58.458245853   -0.18111962250584
          16.198367905   -0.46843975563173
          5.0052600809   -0.44616846289231
 s    1 1.00
         0.58731856571                   1
 s    1 1.00
         0.18764592253                   1
 p    3 1.00
          13.571470233  -0.058848116969522
          2.9257372874   -0.32024624762471
         0.79927750754   -0.75328226520436
 p    1 1.00
         0.21954348034                   1
 d    1 1.00
                     1                   1

13 0
 s    3 1.00
             13.010701   0.033485484812989
             1.9622572    0.23472187088125
            0.44453796    0.81377028525955
 s    1 1.00
            0.12194962                   1
 p    1 1.00
                   0.8                   1

14 0
 s    3 1.00
             13.010701   0.033485484812989
             1.9622572    0.23472187088125
            0.44453796    0.81377028525955
 s    1 1.00
            0.12194962                   1
 p    1 1.00
                   0.8                   1

15 0
 s    3 1.00
             13.010701   0.033485484812989
             1.9622572    0.23472187088125
            0.44453796    0.81377028525955
 s    1 1.00
            0.12194962                   1
 p    1 1.00
                   0.8                   1

16 0
 s    5 1.00
          1712.8415853  -0.0054477995804909
          257.64812677  -0.040627174632423
          58.458245853   -0.18111962250584
          16.198367905   -0.46843975563173
          5.0052600809   -0.44616846289231
 s    1 1.00
         0.58731856571                   1
 s    1 1.00
         0.18764592253                   1
 p    3 1.00
          13.571470233  -0.058848116969522
          2.9257372874   -0.32024624762471
         0.79927750754   -0.75328226520436
 p    1 1.00
         0.21954348034                   1
 d    1 1.00
                     1                   1

17 0
 s    3 1.00
             13.010701   0.033485484812989
             1.9622572    0.23472187088125
            0.44453796    0.81377028525955
 s    1 1.00
            0.12194962                   1
 p    1 1.00
                   0.8                   1

18 0
 s    3 1.00
             13.010701   0.033485484812989
             1.9622572    0.23472187088125
            0.44453796    0.81377028525955
 s    1 1.00
            0.12194962                   1
 p    1 1.00
                   0.8                   1

19 0
 s    3 1.00
             13.010701   0.033485484812989
             1.9622572    0.23472187088125
            0.44453796    0.81377028525955
 s    1 1.00
            0.12194962                   1
 p    1 1.00
                   0.8                   1

20 0
 s    5 1.00
          1712.8415853  -0.0054477995804909
          257.64812677  -0.040627174632423
          58.458245853   -0.18111962250584
          16.198367905   -0.46843975563173
          5.0052600809   -0.44616846289231
 s    1 1.00
         0.58731856571                   1
 s    1 1.00
         0.18764592253                   1
 p    3 1.00
          13.571470233  -0.058848116969522
          2.9257372874   -0.32024624762471
         0.79927750754   -0.75328226520436
 p    1 1.00
         0.21954348034                   1
 d    1 1.00
                     1                   1

21 0
 s    3 1.00
             13.010701   0.033485484812989
             1.9622572    0.23472187088125
            0.44453796    0.81377028525955
 s    1 1.00
            0.12194962                   1
 p    1 1.00
                   0.8                   1

22 0
 s    3 1.00
             13.010701   0.033485484812989
             1.9622572    0.23472187088125
            0.44453796    0.81377028525955
 s    1 1.00
            0.12194962                   1
 p    1 1.00
                   0.8                   1

23 0
 s    3 1.00
             13.010701   0.033485484812989
             1.9622572    0.23472187088125
            0.44453796    0.81377028525955
 s    1 1.00
            0.12194962                   1
 p    1 1.00
                   0.8                   1

24 0
 s    5 1.00
          1712.8415853  -0.0054477995804909
          257.64812677  -0.040627174632423
          58.458245853   -0.18111962250584
          16.198367905   -0.46843975563173
          5.0052600809   -0.44616846289231
 s    1 1.00
         0.58731856571                   1
 s    1 1.00
         0.18764592253                   1
 p    3 1.00
          13.571470233  -0.058848116969522
          2.9257372874   -0.32024624762471
         0.79927750754   -0.75328226520436
 p    1 1.00
         0.21954348034                   1
 d    1 1.00
                     1                   1

25 0
 s    3 1.00
             13.010701   0.033485484812989
             1.9622572    0.23472187088125
            0.44453796    0.81377028525955
 s    1 1.00
            0.12194962                   1
 p    1 1.00
                   0.8                   1

26 0
 s    3 1.00
             13.010701   0.033485484812989
             1.9622572    0.23472187088125
            0.44453796    0.81377028525955
 s    1 1.00
            0.12194962                   1
 p    1 1.00
                   0.8                   1

27 0
 s    3 1.00
             13.010701   0.033485484812989
             1.9622572    0.23472187088125
            0.44453796    0.81377028525955
 s    1 1.00
            0.12194962                   1
 p    1 1.00
                   0.8                   1

28 0
 s    5 1.00
          1712.8415853  -0.0054477995804909
          257.64812677  -0.040627174632423
          58.458245853   -0.18111962250584
          16.198367905   -0.46843975563173
          5.0052600809   -0.44616846289231
 s    1 1.00
         0.58731856571                   1
 s    1 1.00
         0.18764592253                   1
 p    3 1.00
          13.571470233  -0.058848116969522
          2.9257372874   -0.32024624762471
         0.79927750754   -0.75328226520436
 p    1 1.00
         0.21954348034                   1
 d    1 1.00
                     1                   1

29 0
 s    3 1.00
             13.010701   0.033485484812989
             1.9622572    0.23472187088125
            0.44453796    0.81377028525955
 s    1 1.00
            0.12194962                   1
 p    1 1.00
                   0.8                   1

30 0
 s    3 1.00
             13.010701   0.033485484812989
             1.9622572    0.23472187088125
            0.44453796    0.81377028525955
 s    1 1.00
            0.12194962                   1
 p    1 1.00
                   0.8                   1

31 0
 s    3 1.00
             13.010701   0.033485484812989
             1.9622572    0.23472187088125
            0.44453796    0.81377028525955
 s    1 1.00
            0.12194962                   1
 p    1 1.00
                   0.8                   1

32 0
 s    5 1.00
          1712.8415853  -0.0054477995804909
          257.64812677  -0.040627174632423
          58.458245853   -0.18111962250584
          16.198367905   -0.46843975563173
          5.0052600809   -0.44616846289231
 s    1 1.00
         0.58731856571                   1
 s    1 1.00
         0.18764592253                   1
 p    3 1.00
          13.571470233  -0.058848116969522
          2.9257372874   -0.32024624762471
         0.79927750754   -0.75328226520436
 p    1 1.00
         0.21954348034                   1
 d    1 1.00
                     1                   1

33 0
 s    3 1.00
             13.010701   0.033485484812989
             1.9622572    0.23472187088125
            0.44453796    0.81377028525955
 s    1 1.00
            0.12194962                   1
 p    1 1.00
                   0.8                   1

34 0
 s    3 1.00
             13.010701   0.033485484812989
             1.9622572    0.23472187088125
            0.44453796    0.81377028525955
 s    1 1.00
            0.12194962                   1
 p    1 1.00
                   0.8                   1

35 0
 s    3 1.00
             13.010701   0.033485484812989
             1.9622572    0.23472187088125
            0.44453796    0.81377028525955
 s    1 1.00
            0.12194962                   1
 p    1 1.00
                   0.8                   1

36 0
 s    5 1.00
          1712.8415853  -0.0054477995804909
          257.64812677  -0.040627174632423
          58.458245853   -0.18111962250584
          16.198367905   -0.46843975563173
          5.0052600809   -0.44616846289231
 s    1 1.00
         0.58731856571                   1
 s    1 1.00
         0.18764592253                   1
 p    3 1.00
          13.571470233  -0.058848116969522
          2.9257372874   -0.32024624762471
         0.79927750754   -0.75328226520436
 p    1 1.00
         0.21954348034                   1
 d    1 1.00
                     1                   1

37 0
 s    3 1.00
             13.010701   0.033485484812989
             1.9622572    0.23472187088125
            0.44453796    0.81377028525955
 s    1 1.00
            0.12194962                   1
 p    1 1.00
                   0.8                   1

38 0
 s    3 1.00
             13.010701   0.033485484812989
             1.9622572    0.23472187088125
            0.44453796    0.81377028525955
 s    1 1.00
            0.12194962                   1
 p    1 1.00
                   0.8                   1

39 0
 s    3 1.00
             13.010701   0.033485484812989
             1.9622572    0.23472187088125
            0.44453796    0.81377028525955
 s    1 1.00
            0.12194962                   1
 p    1 1.00
                   0.8                   1

40 0
 s    5 1.00
          1712.8415853  -0.0054477995804909
          257.64812677  -0.040627174632423
          58.458245853   -0.18111962250584
          16.198367905   -0.46843975563173
          5.0052600809   -0.44616846289231
 s    1 1.00
         0.58731856571                   1
 s    1 1.00
         0.18764592253                   1
 p    3 1.00
          13.571470233  -0.058848116969522
          2.9257372874   -0.32024624762471
         0.79927750754   -0.75328226520436
 p    1 1.00
         0.21954348034                   1
 d    1 1.00
                     1                   1

41 0
 s    3 1.00
             13.010701   0.033485484812989
             1.9622572    0.23472187088125
            0.44453796    0.81377028525955
 s    1 1.00
            0.12194962                   1
 p    1 1.00
                   0.8                   1

42 0
 s    3 1.00
             13.010701   0.033485484812989
             1.9622572    0.23472187088125
            0.44453796    0.81377028525955
 s    1 1.00
            0.12194962                   1
 p    1 1.00
                   0.8                   1

43 0
 s    3 1.00
             13.010701   0.033485484812989
             1.9622572    0.23472187088125
            0.44453796    0.81377028525955
 s    1 1.00
            0.12194962                   1
 p    1 1.00
                   0.8                   1

[5d]
[7f]
[9g]

[MO]
 Sym= A
 Ene=               0
 Spin= Alpha
 Occup=    1.00000
   1    0.0049754927052886
   2     0.024566646636118
   3      0.19698943142992
   4      0.56892006816275
   5      0.33332783464267
   6    -0.00029731296706773
   7    0.00047437881797621
   8    0.00036235310419677
   9    0.0018847143644872
  10    -0.0029945211749397
  11    -0.0022566650658359
  12    0.0016163496693918
  13    -0.0023385128077409
  14    -0.0011767682194366
  15    0.00014169557948199
  16    0.0009063030533984
  17    -0.0014541879211175
  18    0.00058207508805062
  19    0.0012045473347142
  20    0.00068439937712116
  21    0.0019300666484071
  22    -0.0027945175963014
  23    0.0012021174728664
  24    0.0028093667669128
  25    0.00075126334239107
  26    0.00017991189286043
  27    -0.00030580290995342
  28    0.00054772595569366
  29    0.0011927054297077
  30    -0.00085824973527764
  31    -0.0001049032438807
  32    1.6826843315216e-05
  33    0.00012818695645913
  34    0.0016610936620285
  35     0.070589235860231
  36       0.1093370097984
  37    -0.00011819269796875
  38    0.00019060986762923
  39    0.00014637246347702
  40    0.0027245527546401
  41    -0.0043283541155811
  42    -0.0032424058226629
  43     0.042893332452255
  44    -0.067588667468204
  45    -0.049962948248599
  46    -0.00015854481241246
  47    -0.00099023210506415
  48    0.0015751549337372
  49    -0.00063653555469308
  50    -0.0013156037230892
  51    -0.0036180040851682
  52    -0.019043479208185
  53     0.030003943093402
  54     -0.01213938016908
  55    -0.025741649878349
  56    0.00094100721710817
  57    0.00025942549459991
  58    -0.00040585298694028
  59    0.00070552628347401
  60    0.0014881871831629
  61    -0.0010586494129237
  62    -0.00012448820102014
  63    -0.004535913467215
  64     0.050313815253656
  65      0.18076021304679
  66    0.0061717870732592
  67    -0.0098038519001927
  68    -0.0073547932566221
  69     0.074405887448547
  70     -0.11701406823073
  71    -0.085708812954843
  72    -0.00062282982417435
  73    -0.0030864867727351
  74    0.0048553354400472
  75    -0.0019589224375513
  76    -0.0041570306845998
  77    -0.0035587286949862
  78     0.039120896482419
  79      0.15136664692524
  80     0.015798042661865
  81    0.0063493422998867
  82    0.0055734775807718
  83     -0.15732905290682
  84    -0.060139166103236
  85    -0.052240817342063
  86    -0.0049389666616444
  87     0.006201694554459
  88    0.0026123961675699
  89    0.0079956725839912
  90    0.0071994991083943
  91     0.026556280963991
  92     0.092696182228515
  93     -0.01362255559664
  94    -0.0011828882004345
  95    0.00079157359552671
  96      0.02534021562165
  97      0.09354884516359
  98    -0.0099493326489703
  99    -0.0013017610205501
 100    -0.0096060657088567
 101     0.026879031561061
 102      0.10224017549768
 103    -0.010662246670833
 104     -0.01069417771196
 105    -0.0031554205269694
 106    -0.003550487470659
 107     0.039214599640349
 108      0.15112189359074
 109    0.00049238765848879
 110     0.011131374437644
 111    -0.013991677172577
 112    -0.0053982054809428
 113     -0.10711419877193
 114      0.13963867521452
 115     0.006007222066853
 116    -0.00052426633256422
 117    -0.011393081937385
 118    -0.004567313001947
 119     0.000555344877211
 120     0.027397353954221
 121      0.10501214389051
 122    0.0045803720616652
 123    -0.011959460643187
 124    0.0093001943737949
 125     0.026395072391994
 126     0.092010995071545
 127    0.00029449684209182
 128    -0.0028703475807334
 129     0.013314260064197
 130     0.025651690402225
 131     0.092842320901902
 132    -0.0060853686567226
 133    -0.0096296727664039
 134    0.0075802399680503
 135    -0.0035579664369391
 136     0.039127905587449
 137      0.15138600145482
 138    -0.00085373550557027
 139    -0.010707512972008
 140      0.01435139873037
 141    0.0074406952355729
 142      0.10833962377652
 143     -0.13893633445302
 144    0.0060210507409572
 145    -0.0008584988981302
 146     -0.01129235853057
 147    -0.0045370904115888
 148    0.00057428661861565
 149     0.026598179918078
 150     0.092929458013367
 151    -0.00052620226600077
 152      0.01225577967843
 153    -0.0061529102012729
 154      0.02676361594861
 155      0.10160214410024
 156    0.0065344544119839
 157    0.0068053914796829
 158    -0.012094439521372
 159     0.025380305620015
 160     0.093847056403332
 161    -0.0045960273993356
 162    0.0042180020475395
 163    -0.012465908790431
 164    -0.003552522338617
 165     0.039183564124716
 166      0.15144336064452
 167    -0.016098189954461
 168    -0.0058248298359391
 169    -0.0053031609933031
 170      0.15663945854486
 171     0.059176957278686
 172     0.054467045280425
 173    -0.0048256658360042
 174    0.0063303409562057
 175    0.0025143857691521
 176    0.0081658286735551
 177    0.0070484063095105
 178     0.025653471056208
 179     0.093671675929278
 180     0.011538856986113
 181    0.0074074546264409
 182    -0.0018483928759681
 183     0.026324922072046
 184     0.092027817446355
 185    0.0082905780804242
 186    0.0065422585210372
 187    0.0085958398297512
 188     0.027209627377018
 189      0.10334305290102
 190     0.014898158049552
 191    -0.0010927508158599
 192    0.0045007594775655
 193    -0.0035583046407781
 194     0.039469376556717
 195      0.15356622719301
 196    0.0082219661168461
 197    -0.012934435408148
 198    -0.0095353150697455
 199    -0.081275223448537
 200      0.12815298179803
 201     0.094569361974259
 202    -0.0010891367842665
 203    -0.0057677064412873
 204    0.0091334363296024
 205    -0.0036773835741879
 206    -0.0078411939762048
 207     0.026269517645196
 208     0.094649255582158
 209    -0.0068415827246034
 210    0.0043741224295904
 211     0.011008006753804
 212     0.026215773965936
 213     0.094232158092248
 214    9.8959711574106e-05
 215     0.011771733995167
 216    0.0068876477508476
 217      0.02665026435994
 218     0.095988616146272
 219    -0.0095840888377362
 220    0.0099065027254355
 221    0.0019790573187699
 222    6.0843869941321e-05
 223    -0.00038496020441049
 224    0.0040870413507465
 225    -0.0002560833630168
 226    2.2110393898533e-05
 227    0.00014123187334897
 228     0.011617241426709
 229    -0.0040510520284381
 230    -0.0032204758550232
 231    -0.00030336665594712
 232    -0.00021208193841239
 233    0.00042976068980424
 234    0.00041280692099642
 235    -0.00020790724181048
 236    0.00096499263175541
 237     0.015266142066822
 238    0.0029970896777833
 239    -0.00034433428207305
 240    -0.00091668548518059
 241    -0.0010392602616229
 242    0.00013021041559915
 243    -0.00026748912523557
 244    -0.00012236382467816
 245    0.00041406320522781
 246    -0.00046086710846551
 247    -0.0035389612446339
 248    -0.00016461204606294
 249    7.5111795224752e-05
 250    -0.00045966057589341
 251    6.2030745693657e-05
 252    -0.00036752027337163
 253    0.0037608809107252
 254    2.4586154569585e-07
 255    2.2655469653336e-05
 256    0.00023251983277171
 257    0.0038917489475122
 258    -0.0025006188291673
 259    -0.011524376378525
 260    0.00047804667313837
 261    -0.00032965416081803
 262    6.8813462807169e-05
 263    -0.00027102073034576
 264    -0.0002556353355805
 265    -0.00043169128978989
 266    -0.003944603437043
 267    -0.00049490614474119
 268    -0.00031949409553575
 269    8.6234247135211e-05
 270    0.0016331447569987
 271     0.018633065145476
 272    0.00072355256087899
 273    -0.0002864248923912
 274    -0.003921673251858
 275    -0.0012047383718767
 276    -0.0013813936680173
 277    0.00028226179253253
 278    0.00018784806375014
 279    0.00063317783811953
 280    6.1778191958499e-05
 281    -0.00037343473170725
 282     0.003796606417723
 283    8.3083551006442e-05
 284    0.00011454125713938
 285    0.00018396656441886
 286    -0.0024585889121766
 287    -0.0091042055524966
 288    -0.0082529406203281
 289    -6.6713587073575e-05
 290    0.00010516295718287
 291    0.00068722923996891
 292    1.7825246237499e-05
 293    6.4594993597669e-05
 294    -0.00039965908627273
 295    -0.0039301565372417
 296    0.00025704175436306
 297    0.00040955707129297
 298    -0.00030543440633481
 299    -0.0012172102604346
 300    -0.0010014734639818
 301    0.00014361143022179
 302    3.1525187239784e-05
 303    0.00066300107555416
 304     0.001510140839537
 305      0.01804617220468
 306     -0.00134433067844
 307    -0.0023758832029506
 308    -0.0027236782052482
 309    6.202420631282e-05
 310    -0.00034663704644193
 311    0.0042303632524452
 312    -2.5756290467521e-05
 313    0.00034212627915041
 314    -8.003311446738e-06
 315    0.0038682904925092
 316    -0.012073134759445
 317    0.00092649596879761
 318    -7.6392490372648e-05
 319    -0.00018775729738927
 320    -4.7482122447041e-05
 321    -0.00061201729252818
 322    -0.00041976377524581
 323    -0.00043259722257548
 324    -0.0034337823430698
 325    -0.00016271958230407
 326    -8.0526751042619e-05
 327    -0.00039600092196085
 328    -0.00095815536535624
 329    0.0014776912929785
 330    0.00030452396627782
 331    0.00020055952962137
 332    0.00023422164899758
 333    0.00038279723936909
 334     0.012034214330761
 335    0.00013753088411814
 336    -0.0023331957414956
 337    0.00033474698694332
 338    -4.6100423837693e-05
 339    -0.00054486217100595
 340    -0.001657954571601
 341    0.00029384518212212
 342    -0.0004611075704194