 &FCI NORB=  24,NELEC=24,MS2=0,
  ORBSYM=1,1,1,1,1,1,1,1,1,1,1,1,1,1,1,1,1,1,1,1,1,1,1,1,
  ISYM=1,
 &END
 0.563139598443425    1    1    1    1
 0.006577647058221402    2    1    1    1
 0.005241335570097507    2    1    2    1
 0.2999808062545326    2    2    1    1
 0.006578933376202122    2    2    2    1
 0.5631395645108951    2    2    2    2
 -0.0002819067467828951    3    1    1    1
 -0.0005868484259552787    3    1    2    1
 -0.006099870603017455    3    1    2    2
 0.0003951221004703404    3    1    3    1
 -0.0003578193883265018    3    2    1    1
 -0.001184029618627501    3    2    2    1
 0.01216671544007154    3    2    2    2
 -0.0005451025331841686    3    2    3    1
 0.007104872141173631    3    2    3    2
 0.1994461707406661    3    3    1    1
 -0.00063489902135766    3    3    2    1
 0.3204486861708352    3    3    2    2
 0.0002303699383659446    3    3    3    1
 0.01216671549013392    3    3    3    2
 0.5631395639792405    3    3    3    3
 -0.003397291922911535    4    1    1    1
 9.33639592309552e-05    4    1    2    1
 0.0009469334598518606    4    1    2    2
 -4.366161491975231e-05    4    1    3    1
 0.0002736700828702789    4    1    3    2
 0.0009469335083637671    4    1    3    3
 0.0001823862673017303    4    1    4    1
 0.002038038372763023    4    2    1    1
 0.0004730355618175194    4    2    2    1
 0.0002303700742223775    4    2    2    2
 7.144237031235539e-06    4    2    3    1
 -0.0005451025376124407    4    2    3    2
 -0.006099870585864007    4    2    3    3
 -4.366161882460371e-05    4    2    4    1
 0.0003951220999122446    4    2    4    2
 0.002211773687264368    4    3    1    1
 0.0005057205554650546    4    3    2    1
 -0.0006348990046532554    4    3    2    2
 0.0004730355723928629    4    3    3    1
 -0.001184029618804249    4    3    3    2
 0.006578933536829049    4    3    3    3
 9.336397111848921e-05    4    3    4    1
 -0.0005868484366655097    4    3    4    2
 0.005241335578761636    4    3    4    3
 0.1746112184481497    4    4    1    1
 0.002211773682478861    4    4    2    1
 0.1994461707410353    4    4    2    2
 0.002038038417239682    4    4    3    1
 -0.000357819387371271    4    4    3    2
 0.2999808062550743    4    4    3    3
 -0.003397291854879315    4    4    4    1
 -0.0002819067243829878    4    4    4    2
 0.006577647123057159    4    4    4    3
 0.5631395985169371    4    4    4    4
 0.0002309890490129056    5    1    1    1
 0.0004733442246494183    5    1    2    1
 0.002038990241051483    5    1    2    2
 -0.0001105894225575817    5    1    3    1
 -1.501871503613718e-05    5    1    3    2
 0.001199277867970181    5    1    3    3
 -7.951807050714997e-05    5    1    4    1
 3.726531869600663e-05    5    1    4    2
 -2.456204999450693e-05    5    1    4    3
 0.001989738130088042    5    1    4    4
 0.0003954463032607692    5    1    5    1
 0.0009483723417992261    5    2    1    1
 9.33918464199461e-05    5    2    2    1
 -0.003394671098261718    5    2    2    2
 7.929732873919123e-05    5    2    3    1
 7.504773978243034e-05    5    2    3    2
 0.001350565979403308    5    2    3    3
 -1.381060206812275e-05    5    2    4    1
 -7.940650274028601e-05    5    2    4    2
 0.0002672630302812011    5    2    4    3
 0.001350891292528154    5    2    4    4
 -4.365851216944768e-05    5    2    5    1
 0.0001821223887374077    5    2    5    2
 0.001197437277333105    5    3    1    1
 -2.477095429934418e-05    5    3    2    1
 0.001988334455313169    5    3    2    2
 -0.0001105382655244155    5    3    3    1
 0.0005640634641444067    5    3    3    2
 -0.0002820051371788667    5    3    3    3
 7.93801661662849e-05    5    3    4    1
 6.114201056868226e-05    5    3    4    2
 -0.0005872914559771689    5    3    4    3
 -0.006101939529133377    5    3    4    4
 -0.0001106040403394259    5    3    5    1
 -7.949795964743651e-05    5    3    5    2
 0.0003952462664308224    5    3    5    3
 0.002109931004022496    5    4    1    1
 0.0003377795244718088    5    4    2    1
 0.002108888964284291    5    4    2    2
 -1.496409707681077e-05    5    4    3    1
 0.0004805997062038586    5    4    3    2
 -0.0003613000068390242    5    4    3    3
 7.527356844308638e-05    5    4    4    1
 0.0005642553097408525    5    4    4    2
 -0.001184699344875704    5    4    4    3
 0.0121638957011416    5    4    4    4
 0.0005643850842889033    5    4    5    1
 7.511440039235455e-05    5    4    5    2
 -0.0005453883842881073    5    4    5    3
 0.00710429598368219    5    4    5    4
 0.1994599585156795    5    5    1    1
 0.002210306436201239    5    5    2    1
 0.1745910775556445    5    5    2    2
 0.001198863662521592    5    5    3    1
 0.002109393513461789    5    5    3    2
 0.1994319659239818    5    5    3    3
 0.001351887777209665    5    5    4    1
 0.001989553945392172    5    5    4    2
 -0.0006377764473103895    5    5    4    3
 0.3204462493491037    5    5    4    4
 -0.0002860640050974327    5    5    5    1
 -0.003394744647332795    5    5    5    2
 0.0002325949942270104    5    5    5    3
 0.01216111161316225    5    5    5    4
 0.563154376181939    5    5    5    5
 0.01216389560540458    6    1    1    1
 -0.001184699382720923    6    1    2    1
 -0.000361300205778052    6    1    2    2
 0.0005642553240415075    6    1    3    1
 0.0004805996971589411    6    1    3    2
 0.002108888880276911    6    1    3    3
 7.527356375917118e-05    6    1    4    1
 -1.496410409066137e-05    6    1    4    2
 0.0003377795183058473    6    1    4    3
 0.002109931027015783    6    1    4    4
 -0.0005454311204421132    6    1    5    1
 0.0002735327255636289    6    1    5    2
 -1.51339134674817e-05    6    1    5    3
 0.000480868899281944    6    1    5    4
 -0.0003596858238043866    6    1    5    5
 0.007104295974574914    6    1    6    1
 -0.006101939631152382    6    2    1    1
 -0.0005872914821263213    6    2    2    1
 -0.0002820049580484958    6    2    2    2
 6.114200674708491e-05    6    2    3    1
 0.0005640634573947842    6    2    3    2
 0.001988334404915992    6    2    3    3
 7.938016673886477e-05    6    2    4    1
 -0.0001105382651662529    6    2    4    2
 -2.477096724855896e-05    6    2    4    3
 0.001197437178281818    6    2    4    4
 7.036740835751023e-06    6    2    5    1
 -4.378064141433832e-05    6    2    5    2
 3.729562178935504e-05    6    2    5    3
 -1.513392428034523e-05    6    2    5    4
 0.00203743486138832    6    2    5    5
 -0.0005453884047744432    6    2    6    1
 0.0003952462722488819    6    2    6    2
 0.00135089135027057    6    3    1    1
 0.0002672630250692112    6    3    2    1
 0.001350565973305462    6    3    2    2
 -7.940649929421213e-05    6    3    3    1
 7.504773237565451e-05    6    3    3    2
 -0.003394671007332211    6    3    3    3
 -1.381060202372035e-05    6    3    4    1
 7.929732593701785e-05    6    3    4    2
 9.339183319071014e-05    6    3    4    3
 0.0009483722944335389    6    3    4    4
 7.935492247419061e-05    6    3    5    1
 -1.379053419807634e-05    6    3    5    2
 -4.378063307720413e-05    6    3    5    3
 0.0002735327201704313    6    3    5    4
 0.000947545609615464    6    3    5    5
 7.511440827118497e-05    6    3    6    1
 -7.949796451464743e-05    6    3    6    2
 0.0001821223811026413    6    3    6    3
 0.001989738008292034    6    4    1    1
 -2.456207042245057e-05    6    4    2    1
 0.001199277695403831    6    4    2    2
 3.726531930006716e-05    6    4    3    1
 -1.501873557457449e-05    6    4    3    2
 0.002038990085527186    6    4    3    3
 -7.951807861178241e-05    6    4    4    1
 -0.0001105894232347576    6    4    4    2
 0.0004733441993195703    6    4    4    3
 0.0002309891219916765    6    4    4    4
 6.124106124998091e-05    6    4    5    1
 7.935492532788594e-05    6    4    5    2
 7.036736723648135e-06    6    4    5    3
 -0.000545431157810331    6    4    5    4
 -0.006103739245885311    6    4    5    5
 0.000564385058503718    6    4    6    1
 -0.0001106040440506037    6    4    6    2
 -4.36585216954998e-05    6    4    6    3
 0.0003954463175053742    6    4    6    4
 -0.0006342013986708717    6    5    1    1
 0.0005055651162126515    6    5    2    1
 0.002210783491269367    6    5    2    2
 -2.455897636126724e-05    6    5    3    1
 0.0003376978182136838    6    5    3    2
 0.002210783431697395    6    5    3    3
 0.0002675045997719387    6    5    4    1
 -2.455897932076068e-05    6    5    4    2
 0.0005055651071702912    6    5    4    3
 -0.0006342016722324656    6    5    4    4
 -0.0005872806817674461    6    5    5    1
 9.321377358528198e-05    6    5    5    2
 0.0004731184065686811    6    5    5    3
 -0.001184639460633642    6    5    5    4
 0.006592099900002434    6    5    5    5
 -0.00118463938446281    6    5    6    1
 0.0004731183837284719    6    5    6    2
 9.321377898216134e-05    6    5    6    3
 -0.0005872807362906873    6    5    6    4
 0.005244784646027944    6    5    6    5
 0.3204462493394334    6    6    1    1
 -0.0006377765973938964    6    6    2    1
 0.1994319651838927    6    6    2    2
 0.001989554002721881    6    6    3    1
 0.002109393452627627    6    6    3    2
 0.1745910765768132    6    6    3    3
 0.001351887715063313    6    6    4    1
 0.001198863603901525    6    6    4    2
 0.002210306377819933    6    6    4    3
 0.1994599571389342    6    6    4    4
 -0.006103738982561112    6    6    5    1
 0.0009475455595935365    6    6    5    2
 0.002037434957287748    6    6    5    3
 -0.0003596861532953464    6    6    5    4
 0.3000299062747678    6    6    5    5
 0.01216111161579984    6    6    6    1
 0.000232595034774197    6    6    6    2
 -0.003394744557362503    6    6    6    3
 -0.0002860639316488531    6    6    6    4
 0.006592099935574823    6    6    6    5
 0.5631543766708778    6    6    6    6
 -0.0008448865732158919    7    1    1    1
 -0.0001071702864398312    7    1    2    1
 -0.0005750089852244911    7    1    2    2
 6.470608819620323e-05    7    1    3    1
 7.494485691152211e-05    7    1    3    2
 0.0003710595325946904    7    1    3    3
 6.071006020721621e-05    7    1    4    1
 -2.988813548664844e-06    7    1    4    2
 2.453192721824872e-05    7    1    4    3
 0.001157005428093816    7    1    4    4
 -0.0001135374249668346    7    1    5    1
 1.069781237838619e-05    7    1    5    2
 1.823927120867604e-05    7    1    5    3
 -3.316831874629539e-05    7    1    5    4
 0.002429669677215893    7    1    5    5
 0.0003190481102855907    7    1    6    1
 6.258814675477534e-05    7    1    6    2
 -3.885308938074237e-05    7    1    6    3
 -3.646448668571681e-05    7    1    6    4
 0.0001211906724649935    7    1    6    5
 0.003892162735332168    7    1    6    6
 0.0001912578972616993    7    1    7    1
 -0.0005725344806885339    7    2    1    1
 -7.8384978597356e-05    7    2    2    1
 -9.099284927843232e-06    7    2    2    2
 7.011853328089496e-06    7    2    3    1
 9.052175899967056e-05    7    2    3    2
 0.0003246842420566895    7    2    3    3
 2.157521415278668e-06    7    2    4    1
 -1.96559469269618e-05    7    2    4    2
 3.069735355261679e-06    7    2    4    3
 -8.850074414497876e-06    7    2    4    4
 1.054779324950532e-05    7    2    5    1
 1.564858864865705e-06    7    2    5    2
 -1.184144127397765e-06    7    2    5    3
 1.472218802349197e-05    7    2    5    4
 -0.0003065363444289102    7    2    5    5
 2.55565883032669e-05    7    2    6    1
 2.569447408107234e-05    7    2    6    2
 -5.06660659207653e-08    7    2    6    3
 6.852476526822191e-06    7    2    6    4
 3.366695416565822e-06    7    2    6    5
 -0.0006916659755603948    7    2    6    6
 -3.408084555322301e-05    7    2    7    1
 1.593984283382398e-05    7    2    7    2
 0.0003664198752325411    7    3    1    1
 3.149778410261705e-05    7    3    2    1
 0.0002775327139493598    7    3    2    2
 -1.272420337608585e-05    7    3    3    1
 3.046276663837079e-05    7    3    3    2
 -0.0006357819204055826    7    3    3    3
 7.203151123132124e-07    7    3    4    1
 1.512861564180257e-05    7    3    4    2
 -1.950646915922837e-06    7    3    4    3
 1.529387766263896e-05    7    3    4    4
 1.290836331107838e-06    7    3    5    1
 -2.504216384589822e-06    7    3    5    2
 3.646910815557737e-06    7    3    5    3
 2.415985969138545e-05    7    3    5    4
 0.0001819512700632117    7    3    5    5
 -2.498293187291705e-06    7    3    6    1
 -5.337584107989815e-06    7    3    6    2
 1.541676849044326e-05    7    3    6    3
 -2.717807162576995e-06    7    3    6    4
 5.700851264570877e-06    7    3    6    5
 0.0003271251501247482    7    3    6    6
 1.965181467970285e-05    7    3    7    1
 -8.862048041541561e-06    7    3    7    2
 9.531268491088553e-06    7    3    7    3
 0.0002503279946769083    7    4    1    1
 3.087017482754684e-06    7    4    2    1
 8.287053411219726e-06    7    4    2    2
 -1.573168819625132e-06    7    4    3    1
 1.190422368884633e-05    7    4    3    2
 -0.0002165140005832453    7    4    3    3
 2.305466412191579e-05    7    4    4    1
 -2.429038565363121e-06    7    4    4    2
 1.726656259504841e-05    7    4    4    3
 -0.001238123132837543    7    4    4    4
 -2.268097550886496e-05    7    4    5    1
 -2.456800004391005e-06    7    4    5    2
 2.814215311343843e-05    7    4    5    3
 -6.564491332919448e-05    7    4    5    4
 6.40762630217878e-05    7    4    5    5
 -1.005723337155306e-06    7    4    6    1
 1.350428653160331e-06    7    4    6    2
 -2.798821635989286e-06    7    4    6    3
 -1.241873802035192e-05    7    4    6    4
 7.225036248870291e-05    7    4    6    5
 0.0004633953057256394    7    4    6    6
 -8.057495494962251e-06    7    4    7    1
 8.141139562154699e-06    7    4    7    2
 -9.829205788394352e-06    7    4    7    3
 3.197572205355715e-05    7    4    7    4
 -0.0001918757923304209    7    5    1    1
 1.562381546689967e-05    7    5    2    1
 1.992364149591887e-05    7    5    2    2
 2.13190762083124e-06    7    5    3    1
 1.219948200846355e-05    7    5    3    2
 8.406724732384442e-05    7    5    3    3
 -6.756055340352997e-06    7    5    4    1
 -3.35828598348162e-07    7    5    4    2
 1.834560196359353e-05    7    5    4    3
 3.367572134439118e-05    7    5    4    4
 4.262665295034985e-05    7    5    5    1
 1.058065347210838e-05    7    5    5    2
 -1.31934914330914e-05    7    5    5    3
 8.243371645726647e-05    7    5    5    4
 -0.0006472139415646577    7    5    5    5
 3.430245072160288e-05    7    5    6    1
 2.984639606331289e-06    7    5    6    2
 3.755140190286048e-06    7    5    6    3
 3.522775575979281e-05    7    5    6    4
 -7.151498113259323e-05    7    5    6    5
 -0.0004676250437135267    7    5    6    6
 3.156598677976935e-05    7    5    7    1
 -1.730268923393208e-05    7    5    7    2
 1.936639534873404e-05    7    5    7    3
 -4.42784433600352e-05    7    5    7    4
 8.983090261649095e-05    7    5    7    5
 0.002924095208509615    7    6    1    1
 8.658654785245337e-05    7    6    2    1
 0.001459291850062329    7    6    2    2
 -6.488416472668408e-06    7    6    3    1
 2.773595088897179e-05    7    6    3    2
 0.0006797574981450732    7    6    3    3
 -3.76118526252328e-05    7    6    4    1
 6.731450861235541e-06    7    6    4    2
 6.591660937419111e-05    7    6    4    3
 -0.0001570257158696387    7    6    4    4
 5.625648290508675e-05    7    6    5    1
 3.913781465777119e-05    7    6    5    2
 -1.735647213848725e-05    7    6    5    3
 0.0002169383908268648    7    6    5    4
 -0.00182774245679363    7    6    5    5
 0.0009237480892253417    7    6    6    1
 -0.0001355299682957813    7    6    6    2
 3.914930010813215e-05    7    6    6    3
 0.0001373272824523244    7    6    6    4
 -0.0001107371224561952    7    6    6    5
 0.0001834750572686026    7    6    6    6
 -0.0002568580721783382    7    6    7    1
 7.560968152166296e-05    7    6    7    2
 -4.114385502038133e-05    7    6    7    3
 2.670275464369153e-05    7    6    7    4
 -7.112854919529579e-05    7    6    7    5
 0.0007961844830233349    7    6    7    6
 0.1340355334043161    7    7    1    1
 -0.0008626025551509111    7    7    2    1
 0.09977509647717839    7    7    2    2
 0.0007017316571745503    7    7    3    1
 0.0002472423649962205    7    7    3    2
 0.09295477102465707    7    7    3    3
 0.0003457363563203617    7    7    4    1
 0.0005194562283029391    7    7    4    2
 9.956686017374627e-05    7    7    4    3
 0.1071473737158101    7    7    4    4
 -0.00145682090824731    7    7    5    1
 -9.732375525290235e-05    7    7    5    2
 0.000718751416099958    7    7    5    3
 -0.001439896882221121    7    7    5    4
 0.1456650381363936    7    7    5    5
 -0.001515135491792635    7    7    6    1
 0.0003937534511177775    7    7    6    2
 -0.0007008092876461112    7    7    6    3
 -0.0004859269749337617    7    7    6    4
 0.0002211299241183381    7    7    6    5
 0.1814965553601085    7    7    6    6
 0.001011124963153116    7    7    7    1
 -0.0007181325483593946    7    7    7    2
 0.0007783676230447307    7    7    7    3
 -0.002034648516602689    7    7    7    4
 0.003486041521804069    7    7    7    5
 -0.004062086248601778    7    7    7    6
 0.5235212967969264    7    7    7    7
 -0.0005137837664901351    8    1    1    1
 0.0002559043262757929    8    1    2    1
 0.0005437001843242237    8    1    2    2
 -0.0001567250617007372    8    1    3    1
 -0.0001742381420940495    8    1    3    2
 -0.001133316597225797    8    1    3    3
 -0.0001157253084193463    8    1    4    1
 4.091715394018854e-06    8    1    4    2
 -8.487538040267886e-05    8    1    4    3
 -0.00246442956661139    8    1    4    4
 0.0002696334235261329    8    1    5    1
 -4.726032608486142e-05    8    1    5    2
 -4.012727353356946e-05    8    1    5    3
 1.754889647319764e-05    8    1    5    4
 -0.004932712909306788    8    1    5    5
 -0.0009885963649564002    8    1    6    1
 -9.23600982719695e-05    8    1    6    2
 8.883644672376351e-05    8    1    6    3
 3.855082444369594e-05    8    1    6    4
 -0.0002508780593058024    8    1    6    5
 -0.01037666622671685    8    1    6    6
 -0.0001755577645735561    8    1    7    1
 -4.596335316464113e-06    8    1    7    2
 6.732733956607898e-06    8    1    7    3
 -3.800912585188961e-05    8    1    7    4
 7.012788851770009e-05    8    1    7    5
 -2.525145288457411e-05    8    1    7    6
 0.003106312280567766    8    1    7    7
 0.0008274614725264745    8    1    8    1
 0.001465614143615087    8    2    1    1
 0.0001942846615421841    8    2    2    1
 -0.0001301617104162868    8    2    2    2
 -1.363332935474203e-05    8    2    3    1
 -0.0001953337371258576    8    2    3    2
 -0.0006738191104604849    8    2    3    3
 -6.966791909761154e-06    8    2    4    1
 4.120230838780746e-05    8    2    4    2
 5.270509842352318e-06    8    2    4    3
 1.0110860156325e-05    8    2    4    4
 -2.516841586204761e-05    8    2    5    1
 5.716916265683973e-06    8    2    5    2
 -7.274951651086783e-07    8    2    5    3
 -2.313785053220871e-05    8    2    5    4
 0.0005484670005719772    8    2    5    5
 -3.054116544132305e-05    8    2    6    1
 -6.670591847302724e-05    8    2    6    2
 -1.006102256882241e-07    8    2    6    3
 -9.792877289081992e-06    8    2    6    4
 -1.006932089427686e-05    8    2    6    5
 0.001657931546486306    8    2    6    6
 4.28320287022159e-06    8    2    7    1
 -9.904349815733784e-06    8    2    7    2
 8.506664345654345e-07    8    2    7    3
 8.490620101896372e-06    8    2    7    4
 -1.719522767345888e-05    8    2    7    5
 -1.118460729086396e-05    8    2    7    6
 -0.0006022587767572267    8    2    7    7
 -8.85571924177558e-05    8    2    8    1
 4.26262448819565e-05    8    2    8    2
 -0.0008488889466266689    8    3    1    1
 -7.050710180332976e-05    8    3    2    1
 -0.0005787642721038794    8    3    2    2
 2.482587435968188e-05    8    3    3    1
 -4.478289488865608e-05    8    3    3    2
 0.001314548189904223    8    3    3    3
 1.105629103812785e-06    8    3    4    1
 -3.04032460068437e-05    8    3    4    2
 -8.617365682322912e-06    8    3    4    3
 -0.0001061512302264734    8    3    4    4
 -5.547507429897013e-06    8    3    5    1
 2.352552828898277e-06    8    3    5    2
 3.652579685785244e-07    8    3    5    3
 -6.730301880476522e-05    8    3    5    4
 -0.0003326105584683716    8    3    5    5
 -1.265904545385134e-05    8    3    6    1
 1.734626922248595e-05    8    3    6    2
 -3.354300936704011e-05    8    3    6    3
 1.128515730901215e-06    8    3    6    4
 2.174065962938787e-06    8    3    6    5
 -0.0006828545691324887    8    3    6    6
 2.246322203588329e-06    8    3    7    1
 1.118199465711035e-06    8    3    7    2
 -5.546552379966764e-06    8    3    7    3
 -2.838788039359756e-06    8    3    7    4
 3.471968527654404e-06    8    3    7    5
 -1.024596364119333e-05    8    3    7    6
 0.0004115014670821426    8    3    7    7
 4.131891858520854e-05    8    3    8    1
 -1.321219092475039e-05    8    3    8    2
 1.896346222690265e-05    8    3    8    3
 -0.0004449830302380549    8    4    1    1
 -4.03495478109088e-06    8    4    2    1
 -4.408179637917583e-05    8    4    2    2
 -2.563583915053443e-07    8    4    3    1
 -1.179364236633876e-05    8    4    3    2
 0.0002027753437154347    8    4    3    3
 -3.61128123516406e-05    8    4    4    1
 1.853371836881935e-05    8    4    4    2
 -6.996324955533265e-05    8    4    4    3
 0.002084558352599184    8    4    4    4
 5.486753536987151e-05    8    4    5    1
 -4.764231308555696e-07    8    4    5    2
 -5.709106784381194e-05    8    4    5    3
 0.0002612331506218106    8    4    5    4
 0.0002469591372102362    8    4    5    5
 2.909759738862407e-05    8    4    6    1
 -1.122702251068076e-05    8    4    6    2
 1.334337300381122e-05    8    4    6    3
 1.072223328789281e-05    8    4    6    4
 -0.0001929437384361386    8    4    6    5
 -0.0009860488334105994    8    4    6    6
 -1.27430593806568e-05    8    4    7    1
 2.429958168401899e-06    8    4    7    2
 1.201324879955908e-07    8    4    7    3
 -1.715640380085699e-05    8    4    7    4
 1.731888041370614e-05    8    4    7    5
 1.967902625460512e-05    8    4    7    6
 5.521419348800925e-05    8    4    7    7
 6.099529450065233e-05    8    4    8    1
 -1.17020095955723e-05    8    4    8    2
 -2.140647829596521e-06    8    4    8    3
 5.277413107894502e-05    8    4    8    4
 0.0002997555167091254    8    5    1    1
 -2.803329139062441e-05    8    5    2    1
 3.374227854059981e-05    8    5    2    2
 -2.757085506495655e-06    8    5    3    1
 -2.608893240847973e-05    8    5    3    2
 0.0001048257271820199    8    5    3    3
 1.572620729564578e-05    8    5    4    1
 2.598483431331248e-06    8    5    4    2
 -4.204433293199935e-05    8    5    4    3
 0.0007685641280588472    8    5    4    4
 -8.679810366358454e-05    8    5    5    1
 -2.963952748324252e-05    8    5    5    2
 9.343646941739724e-06    8    5    5    3
 -4.645165634420879e-05    8    5    5    4
 0.002330903063237149    8    5    5    5
 -0.0001448016775186438    8    5    6    1
 1.384058632424526e-05    8    5    6    2
 -6.771425598179806e-06    8    5    6    3
 -0.0001116944279329342    8    5    6    4
 0.0001918818371604649    8    5    6    5
 0.001000569089647421    8    5    6    6
 2.672161359519418e-05    8    5    7    1
 -7.98738586007975e-06    8    5    7    2
 3.639105461929985e-07    8    5    7    3
 8.642045597194672e-06    8    5    7    4
 -5.166380327592056e-05    8    5    7    5
 -7.667196828132646e-05    8    5    7    6
 0.0006348811605586619    8    5    7    7
 -5.339346738358174e-05    8    5    8    1
 1.398848966241681e-05    8    5    8    2
 1.220094765435957e-05    8    5    8    3
 -6.319983258621631e-05    8    5    8    4
 0.0002355128116593682    8    5    8    5
 -0.0052948116736282    8    6    1    1
 -0.0002963306764800071    8    6    2    1
 -0.002951050643150498    8    6    2    2
 3.028246898074598e-05    8    6    3    1
 -8.261117300163743e-05    8    6    3    2
 -0.001693404633451094    8    6    3    3
 8.267777719759791e-05    8    6    4    1
 -2.466300186945035e-05    8    6    4    2
 -0.0001293966787900893    8    6    4    3
 -0.0004808000558115024    8    6    4    4
 -0.0001964142807707239    8    6    5    1
 -5.370424352982661e-05    8    6    5    2
 4.318280024758699e-05    8    6    5    3
 -0.0005028682793317152    8    6    5    4
 0.002936758023967475    8    6    5    5
 -0.002352313007652842    8    6    6    1
 0.0002879191309638494    8    6    6    2
 -0.0001517919198512912    8    6    6    3
 -0.0002352887719403947    8    6    6    4
 1.172347490962565e-05    8    6    6    5
 0.003502190034203091    8    6    6    6
 9.528710142357425e-05    8    6    7    1
 -1.16545962960473e-05    8    6    7    2
 -1.320740367064501e-05    8    6    7    3
 7.480351494130734e-05    8    6    7    4
 -0.0001661804913293329    8    6    7    5
 -0.0008534250754678204    8    6    7    6
 -0.004416439360664547    8    6    7    7
 -0.001071410037293907    8    6    8    1
 0.0002516770684192523    8    6    8    2
 -0.0001014996118629412    8    6    8    3
 -0.0001203489551870293    8    6    8    4
 0.0001300098137740443    8    6    8    5
 0.005325423751993294    8    6    8    6
 -0.001358505147618919    8    7    1    1
 -5.50001981631934e-05    8    7    2    1
 -0.0009482769838899263    8    7    2    2
 -2.135575417164153e-06    8    7    3    1
 -3.248379183241478e-05    8    7    3    2
 -0.0009728226671516819    8    7    3    3
 -4.050795378508766e-05    8    7    4    1
 -9.540938596848122e-06    8    7    4    2
 -1.439412449836236e-05    8    7    4    3
 -0.001507629579622837    8    7    4    4
 9.974894940640712e-05    8    7    5    1
 6.488748565387756e-06    8    7    5    2
 -3.288814078315317e-05    8    7    5    3
 7.683662046346904e-05    8    7    5    4
 -0.003584076321406348    8    7    5    5
 0.0001106721669467601    8    7    6    1
 -5.770556854225829e-05    8    7    6    2
 2.261971920367089e-05    8    7    6    3
 0.0001163118123777365    8    7    6    4
 -0.0004194387357970988    8    7    6    5
 -0.004567397101834427    8    7    6    6
 0.0005050412126465935    8    7    7    1
 -0.000168738391405982    8    7    7    2
 0.0001170327778998067    8    7    7    3
 -0.0001700140255446494    8    7    7    4
 0.000437283956913146    8    7    7    5
 -0.001172144201630484    8    7    7    6
 0.0178546936694995    8    7    7    7
 0.0009428134074624343    8    7    8    1
 -0.0002026126915140373    8    7    8    2
 6.829807032584915e-05    8    7    8    3
 0.0001538688893969903    8    7    8    4
 -0.0001299797316473037    8    7    8    5
 -0.002130938797841663    8    7    8    6
 0.007322801841631288    8    7    8    7
 0.183049551255541    8    8    1    1
 -0.001084788097158124    8    8    2    1
 0.1297554390424322    8    8    2    2
 0.00113588762823076    8    8    3    1
 0.0007058691613963729    8    8    3    2
 0.1222962024188245    8    8    3    3
 0.001061285036724138    8    8    4    1
 0.0007780642735577899    8    8    4    2
 0.0002340740656450104    8    8    4    3
 0.1490419150124327    8    8    4    4
 -0.003392821489624472    8    8    5    1
 -0.000200933353639762    8    8    5    2
 0.001432725945662338    8    8    5    3
 -0.003368637461015099    8    8    5    4
 0.2287876987706615    8    8    5    5
 -0.00482866277214102    8    8    6    1
 0.001447280534851518    8    8    6    2
 -0.001562733446400074    8    8    6    3
 -0.001891372697002239    8    8    6    4
 0.003642208050523517    8    8    6    5
 0.3010242597069197    8    8    6    6
 0.004450520597425755    8    8    7    1
 -0.001154747068593053    8    8    7    2
 0.0005499670546458354    8    8    7    3
 -1.751078011890425e-05    8    8    7    4
 0.000600112048903998    8    8    7    5
 -0.01016105483395789    8    8    7    6
 0.3088691361566225    8    8    7    7
 -0.0001398836520863722    8    8    8    1
 0.0005156493212449517    8    8    8    2
 0.0002554334609026307    8    8    8    3
 -0.0006190506119112048    8    8    8    4
 0.00157130365807882    8    8    8    5
 0.005823335881053108    8    8    8    6
 0.008063325026652733    8    8    8    7
 0.5612153341289451    8    8    8    8
 0.002084558404575901    9    1    1    1
 -6.996326197188183e-05    9    1    2    1
 0.0002027752749919161    9    1    2    2
 1.853371819309216e-05    9    1    3    1
 -1.179365055921697e-05    9    1    3    2
 -4.408188111532048e-05    9    1    3    3
 -3.611281674187697e-05    9    1    4    1
 -2.563585931169805e-07    9    1    4    2
 -4.034959338180636e-06    9    1    4    3
 -0.0004449831326267615    9    1    4    4
 1.072223292796835e-05    9    1    5    1
 1.334337327694227e-05    9    1    5    2
 -1.122702367246068e-05    9    1    5    3
 2.909759290767634e-05    9    1    5    4
 -0.0009860489814658045    9    1    5    5
 0.0002612331364821123    9    1    6    1
 -5.709107176566052e-05    9    1    6    2
 -4.764231948168775e-07    9    1    6    3
 5.486753838730513e-05    9    1    6    4
 -0.0001929437513965525    9    1    6    5
 0.0002469590348776293    9    1    6    6
 -8.3981205358424e-06    9    1    7    1
 -7.535683175877408e-07    9    1    7    2
 5.109675124205162e-07    9    1    7    3
 -3.417646046838287e-06    9    1    7    4
 1.41258746476645e-05    9    1    7    5
 4.613214121442157e-05    9    1    7    6
 -0.0001955520833155733    9    1    7    7
 1.600453497991349e-05    9    1    8    1