[Molden Format]
made by pyscf v[2.2.1]
[Atoms] (AU)
Fe   1   26    10.35569916261654     2.17318504324982   -15.17450078025744
S   2   16     7.65339080448850    -1.15273293598469   -16.53510358994429
S   3   16    14.15404867299231     0.79368497231733   -17.08312416606816
Fe   4   26    11.41394579237297    -2.30546587196938   -18.19806257956155
S   5   16    10.33680190137089     2.36215765570633   -10.54467177507304
S   6   16     8.74943195673624     6.19830168857340   -16.57289811243559
S   7   16    10.86592521624911    -2.83458918684759   -22.77119980100900
S   8   16    12.96352121451632    -6.44396608476686   -16.74297346364645
C   9   6    10.41239094635349     8.40928125431453   -14.19184319548361
H   10   1    12.26432254842725     9.12737718164925   -14.96663090655529
H   11   1     9.20296622663185    10.07224024393178   -13.70051440309670
H   12   1    10.80923343251215     7.25654831832984   -12.45329516088376
C   13   6     6.80301404843422     3.21253441176060   -10.46908273009044
H   14   1     5.68807563494084     1.51178089965205   -10.99820604496866
H   15   1     6.19830168857340     3.89283581660403    -8.54156208303408
H   16   1     6.46286334601251     4.68652078892135   -11.92417184600554
C   17   6     9.84547310898397    -7.97464424566456   -17.87680913838549
H   18   1     9.63760323528181    -7.57780175950590   -19.93661061416140
H   19   1     9.84547310898397   -10.05334298268613   -17.49886391347247
H   20   1     8.25810316434932    -7.02978118338203   -16.87525429236600
C   21   6    14.41861033043142    -3.49599333044536   -23.13024776467636
H   22   1    14.92883638406399    -3.89283581660403   -25.15225471796098
H   23   1    15.49575422143351    -1.81413707958246   -22.41215183734163
H   24   1    14.90993912281834    -5.14005505881697   -21.90192578370907
[GTO]
1 0
 s    6 1.00
          60923.640643  0.0017552243692958
          9147.8893982   0.013449023284001
          2081.3505927   0.066678874640978
          587.55977067    0.23176348548844
           191.0904399    0.46945550248188
          65.732730112     0.3596824938678
 s    3 1.00
          127.25891928   -0.10723431835929
           14.83091301    0.62971616328466
          6.0653307408    0.44472317896179
 s    3 1.00
           10.44994371   -0.21694289195548
          1.7245228003    0.69457867408393
         0.71772177325    0.43298308896347
 s    1 1.00
        0.091449828308                   1
 s    1 1.00
        0.033706691021                   1
 p    5 1.00
          773.43750995  0.0091440529992506
          182.15149714   0.067887577136571
          57.547272758    0.26167978878504
          20.614988935    0.51088040113251
           7.634855789    0.33235475570224
 p    3 1.00
           3.871932799    0.33193859098144
          1.4924724132     0.5553666555499
         0.56061284958    0.23106034201617
 p    1 1.00
              0.134915                   1
 d    4 1.00
          38.968133419   0.033335938558743
          10.800067078    0.17766212505983
          3.6136457999      0.441281781625
          1.2129967888    0.57089200490673
 d    1 1.00
          0.3652439317                   1
 f    1 1.00
                 1.598                   1

2 0
 s    5 1.00
           9184.930301  -0.0054729466134731
          1381.5105503  -0.040954402155135
           313.8714758   -0.18475828956188
          88.053870623   -0.47567280643953
          27.039914905   -0.43495153584169
 s    3 1.00
          45.648731303  -0.091904045808942
          4.9664522326    0.55698777214497
          2.0116242047     0.5111546829846
 s    1 1.00
         0.35661077013                   1
 s    1 1.00
         0.13507221477                   1
 p    5 1.00
          261.98233439  -0.009183054659266
          61.306894736   -0.06590222652599
          19.103729887   -0.24587784518735
          6.6567720378    -0.4823147107602
          2.3959635161   -0.38956314351423
 p    1 1.00
         0.61776161679                   1
 p    1 1.00
         0.16993376871                   1
 d    1 1.00
                  0.55                   1

3 0
 s    5 1.00
           9184.930301  -0.0054729466134731
          1381.5105503  -0.040954402155135
           313.8714758   -0.18475828956188
          88.053870623   -0.47567280643953
          27.039914905   -0.43495153584169
 s    3 1.00
          45.648731303  -0.091904045808942
          4.9664522326    0.55698777214497
          2.0116242047     0.5111546829846
 s    1 1.00
         0.35661077013                   1
 s    1 1.00
         0.13507221477                   1
 p    5 1.00
          261.98233439  -0.009183054659266
          61.306894736   -0.06590222652599
          19.103729887   -0.24587784518735
          6.6567720378    -0.4823147107602
          2.3959635161   -0.38956314351423
 p    1 1.00
         0.61776161679                   1
 p    1 1.00
         0.16993376871                   1
 d    1 1.00
                  0.55                   1

4 0
 s    6 1.00
          60923.640643  0.0017552243692958
          9147.8893982   0.013449023284001
          2081.3505927   0.066678874640978
          587.55977067    0.23176348548844
           191.0904399    0.46945550248188
          65.732730112     0.3596824938678
 s    3 1.00
          127.25891928   -0.10723431835929
           14.83091301    0.62971616328466
          6.0653307408    0.44472317896179
 s    3 1.00
           10.44994371   -0.21694289195548
          1.7245228003    0.69457867408393
         0.71772177325    0.43298308896347
 s    1 1.00
        0.091449828308                   1
 s    1 1.00
        0.033706691021                   1
 p    5 1.00
          773.43750995  0.0091440529992506
          182.15149714   0.067887577136571
          57.547272758    0.26167978878504
          20.614988935    0.51088040113251
           7.634855789    0.33235475570224
 p    3 1.00
           3.871932799    0.33193859098144
          1.4924724132     0.5553666555499
         0.56061284958    0.23106034201617
 p    1 1.00
              0.134915                   1
 d    4 1.00
          38.968133419   0.033335938558743
          10.800067078    0.17766212505983
          3.6136457999      0.441281781625
          1.2129967888    0.57089200490673
 d    1 1.00
          0.3652439317                   1
 f    1 1.00
                 1.598                   1

5 0
 s    5 1.00
           9184.930301  -0.0054729466134731
          1381.5105503  -0.040954402155135
           313.8714758   -0.18475828956188
          88.053870623   -0.47567280643953
          27.039914905   -0.43495153584169
 s    3 1.00
          45.648731303  -0.091904045808942
          4.9664522326    0.55698777214497
          2.0116242047     0.5111546829846
 s    1 1.00
         0.35661077013                   1
 s    1 1.00
         0.13507221477                   1
 p    5 1.00
          261.98233439  -0.009183054659266
          61.306894736   -0.06590222652599
          19.103729887   -0.24587784518735
          6.6567720378    -0.4823147107602
          2.3959635161   -0.38956314351423
 p    1 1.00
         0.61776161679                   1
 p    1 1.00
         0.16993376871                   1
 d    1 1.00
                  0.55                   1

6 0
 s    5 1.00
           9184.930301  -0.0054729466134731
          1381.5105503  -0.040954402155135
           313.8714758   -0.18475828956188
          88.053870623   -0.47567280643953
          27.039914905   -0.43495153584169
 s    3 1.00
          45.648731303  -0.091904045808942
          4.9664522326    0.55698777214497
          2.0116242047     0.5111546829846
 s    1 1.00
         0.35661077013                   1
 s    1 1.00
         0.13507221477                   1
 p    5 1.00
          261.98233439  -0.009183054659266
          61.306894736   -0.06590222652599
          19.103729887   -0.24587784518735
          6.6567720378    -0.4823147107602
          2.3959635161   -0.38956314351423
 p    1 1.00
         0.61776161679                   1
 p    1 1.00
         0.16993376871                   1
 d    1 1.00
                  0.55                   1

7 0
 s    5 1.00
           9184.930301  -0.0054729466134731
          1381.5105503  -0.040954402155135
           313.8714758   -0.18475828956188
          88.053870623   -0.47567280643953
          27.039914905   -0.43495153584169
 s    3 1.00
          45.648731303  -0.091904045808942
          4.9664522326    0.55698777214497
          2.0116242047     0.5111546829846
 s    1 1.00
         0.35661077013                   1
 s    1 1.00
         0.13507221477                   1
 p    5 1.00
          261.98233439  -0.009183054659266
          61.306894736   -0.06590222652599
          19.103729887   -0.24587784518735
          6.6567720378    -0.4823147107602
          2.3959635161   -0.38956314351423
 p    1 1.00
         0.61776161679                   1
 p    1 1.00
         0.16993376871                   1
 d    1 1.00
                  0.55                   1

8 0
 s    5 1.00
           9184.930301  -0.0054729466134731
          1381.5105503  -0.040954402155135
           313.8714758   -0.18475828956188
          88.053870623   -0.47567280643953
          27.039914905   -0.43495153584169
 s    3 1.00
          45.648731303  -0.091904045808942
          4.9664522326    0.55698777214497
          2.0116242047     0.5111546829846
 s    1 1.00
         0.35661077013                   1
 s    1 1.00
         0.13507221477                   1
 p    5 1.00
          261.98233439  -0.009183054659266
          61.306894736   -0.06590222652599
          19.103729887   -0.24587784518735
          6.6567720378    -0.4823147107602
          2.3959635161   -0.38956314351423
 p    1 1.00
         0.61776161679                   1
 p    1 1.00
         0.16993376871                   1
 d    1 1.00
                  0.55                   1

9 0
 s    5 1.00
          1238.4016938  0.0055173650481097
          186.29004992   0.041088828555946
          42.251176346     0.1822538212649
          11.676557932    0.46828459437429
          3.5930506482    0.44575817336002
 s    1 1.00
         0.40245147363                   1
 s    1 1.00
         0.13090182668                   1
 p    3 1.00
          9.4680970621   0.056888332011037
          2.0103545142    0.31294059336471
         0.54771004707    0.76065016509135
 p    1 1.00
         0.15268613795                   1
 d    1 1.00
                   0.8                   1

10 0
 s    3 1.00
             13.010701   0.033485484812989
             1.9622572    0.23472187088125
            0.44453796    0.81377028525955
 s    1 1.00
            0.12194962                   1
 p    1 1.00
                   0.8                   1

11 0
 s    3 1.00
             13.010701   0.033485484812989
             1.9622572    0.23472187088125
            0.44453796    0.81377028525955
 s    1 1.00
            0.12194962                   1
 p    1 1.00
                   0.8                   1

12 0
 s    3 1.00
             13.010701   0.033485484812989
             1.9622572    0.23472187088125
            0.44453796    0.81377028525955
 s    1 1.00
            0.12194962                   1
 p    1 1.00
                   0.8                   1

13 0
 s    5 1.00
          1238.4016938  0.0055173650481097
          186.29004992   0.041088828555946
          42.251176346     0.1822538212649
          11.676557932    0.46828459437429
          3.5930506482    0.44575817336002
 s    1 1.00
         0.40245147363                   1
 s    1 1.00
         0.13090182668                   1
 p    3 1.00
          9.4680970621   0.056888332011037
          2.0103545142    0.31294059336471
         0.54771004707    0.76065016509135
 p    1 1.00
         0.15268613795                   1
 d    1 1.00
                   0.8                   1

14 0
 s    3 1.00
             13.010701   0.033485484812989
             1.9622572    0.23472187088125
            0.44453796    0.81377028525955
 s    1 1.00
            0.12194962                   1
 p    1 1.00
                   0.8                   1

15 0
 s    3 1.00
             13.010701   0.033485484812989
             1.9622572    0.23472187088125
            0.44453796    0.81377028525955
 s    1 1.00
            0.12194962                   1
 p    1 1.00
                   0.8                   1

16 0
 s    3 1.00
             13.010701   0.033485484812989
             1.9622572    0.23472187088125
            0.44453796    0.81377028525955
 s    1 1.00
            0.12194962                   1
 p    1 1.00
                   0.8                   1

17 0
 s    5 1.00
          1238.4016938  0.0055173650481097
          186.29004992   0.041088828555946
          42.251176346     0.1822538212649
          11.676557932    0.46828459437429
          3.5930506482    0.44575817336002
 s    1 1.00
         0.40245147363                   1
 s    1 1.00
         0.13090182668                   1
 p    3 1.00
          9.4680970621   0.056888332011037
          2.0103545142    0.31294059336471
         0.54771004707    0.76065016509135
 p    1 1.00
         0.15268613795                   1
 d    1 1.00
                   0.8                   1

18 0
 s    3 1.00
             13.010701   0.033485484812989
             1.9622572    0.23472187088125
            0.44453796    0.81377028525955
 s    1 1.00
            0.12194962                   1
 p    1 1.00
                   0.8                   1

19 0
 s    3 1.00
             13.010701   0.033485484812989
             1.9622572    0.23472187088125
            0.44453796    0.81377028525955
 s    1 1.00
            0.12194962                   1
 p    1 1.00
                   0.8                   1

20 0
 s    3 1.00
             13.010701   0.033485484812989
             1.9622572    0.23472187088125
            0.44453796    0.81377028525955
 s    1 1.00
            0.12194962                   1
 p    1 1.00
                   0.8                   1

21 0
 s    5 1.00
          1238.4016938  0.0055173650481097
          186.29004992   0.041088828555946
          42.251176346     0.1822538212649
          11.676557932    0.46828459437429
          3.5930506482    0.44575817336002
 s    1 1.00
         0.40245147363                   1
 s    1 1.00
         0.13090182668                   1
 p    3 1.00
          9.4680970621   0.056888332011037
          2.0103545142    0.31294059336471
         0.54771004707    0.76065016509135
 p    1 1.00
         0.15268613795                   1
 d    1 1.00
                   0.8                   1

22 0
 s    3 1.00
             13.010701   0.033485484812989
             1.9622572    0.23472187088125
            0.44453796    0.81377028525955
 s    1 1.00
            0.12194962                   1
 p    1 1.00
                   0.8                   1

23 0
 s    3 1.00
             13.010701   0.033485484812989
             1.9622572    0.23472187088125
            0.44453796    0.81377028525955
 s    1 1.00
            0.12194962                   1
 p    1 1.00
                   0.8                   1

24 0
 s    3 1.00
             13.010701   0.033485484812989
             1.9622572    0.23472187088125
            0.44453796    0.81377028525955
 s    1 1.00
            0.12194962                   1
 p    1 1.00
                   0.8                   1

[5d]
[7f]
[9g]

[MO]
 Sym= A
 Ene=               0
 Spin= Alpha
 Occup=    1.00000
   1    0.00076472570598967
   2    -0.0022678810421717
   3     0.010206971090184
   4    -0.018409621568264
   5    0.0094821918316632
   6    -0.0010998242458024
   7    0.0025057834583497
   8    0.0022074804002191
   9    0.0034450939005564
  10    -0.0078203719843079
  11    -0.0069285520707853
  12    -0.0054889882082178
  13      0.01108678214634
  14     0.010800750031918
  15    -0.032648717509229
  16     -0.64060783933445
  17      0.27665537909467
  18     -0.50907044564498
  19      0.14365026214659
  20    -0.0089161001011663
  21     -0.17135935568125
  22     0.076007242041934
  23     -0.13704989287347
  24      0.03754042170355
  25    4.8702081272705e-05
  26    -0.00035619477328661
  27    -0.00014740459516325
  28    -0.00013364547553879
  29    -0.00032734461750279
  30    -0.00022908789546164
  31    -0.00034432531900119
  32    -0.00030144534507019
  33    -0.0021070312469892
  34    0.0049136932766651
  35    0.0057777591172238
  36    -0.012750854241598
  37    0.0090379248017324
  38    -0.010774098917459
  39    -0.032665835339387
  40     0.022967091640615
  41     -0.02819930604737
  42    -0.050009599320085
  43     0.039711914446512
  44    -0.052905747449753
  45    0.0027918682377282
  46    -5.2033751919552e-05
  47    -0.00019883922180268
  48    -0.0002931206353898
  49    0.0022074654269236
  50    -0.00020694130036938
  51    -0.0015049418247336
  52    0.0043501437348469
  53    0.0051308861929571
  54     0.012018451957693
  55    -0.0016753724783003
  56      0.01288614440382
  57     0.031054452771694
  58    -0.0049617034874024
  59     0.032957894983392
  60     0.048578100892147
  61    -0.013496557881197
  62     0.057937130428271
  63    -0.00089404412784524
  64    -0.0011809633126623
  65    -0.0023977981867913
  66    -0.00098630143212986
  67    -0.0014075519823159
  68    0.0014940189227822
  69    -0.0042731424902967
  70     0.020722754408947
  71    -0.038522244509958
  72     0.017769268110858
  73    0.00060502444400671
  74    -0.0025433204826846
  75    -0.0018847524840202
  76    -0.001981273695404
  77    0.0083096909042988
  78    0.0061546779251479
  79    0.0033162511243569
  80    -0.012066768812257
  81    -0.0096262612570047
  82    0.00027340016716982
  83    0.0054436354093291
  84    -0.0035899762241413
  85    0.0034964674544633
  86    -0.0016380095239539
  87    0.0011036973909021
  88    0.0065322348402465
  89    -0.00056169781714736
  90    0.0010310037811797
  91    -0.0040785662897008
  92    -3.3259709932179e-05
  93    0.00026056163551876
  94    0.00017431947043352
  95    -0.00033771346794994
  96    8.3272994207186e-06
  97    0.00035786534486392
  98    -4.0143619885479e-05
  99    -0.00090365403152618
 100    -0.0059447819753707
 101    0.0091506271419198
 102    0.0076914868418762
 103    0.0050678994691811
 104    -0.0071337917697589
 105    -0.00094261366772083
 106    0.0088720779695412
 107    -0.012521682509552
 108    -0.0018892666558986
 109    0.0094721552081902
 110      -0.0189358663037
 111    -0.00063506674887648
 112    0.0017750745868018
 113    0.0027388000609954
 114    -0.0013748833673377
 115    -0.0023220556994307
 116    0.0014955341112757
 117    -0.0010030416698727
 118    -0.0065856970359011
 119    0.0095757063400067
 120    0.0097442600933419
 121    -0.0058320103691626
 122    -0.0027877134193459
 123    -0.0042467711962566
 124    -0.0099773513833569
 125    -0.0051647842252628
 126    -0.0074200286779787
 127    -0.015340639295885
 128    -0.0038376825562667
 129    -0.0096535369957652
 130    0.0010366553451958
 131    -0.00057818463700741
 132    -0.0036895297277616
 133    0.0025864643557267
 134    -0.0027120541633448
 135    -0.00014811003336242
 136    -0.0010086939460833
 137    0.0029848139531742
 138    -0.0041235667338516
 139    0.00068889953385602
 140    0.0012192068814957
 141    0.0023304115678089
 142    0.0016821256577694
 143    0.0021724484384005
 144    0.0039860638169844
 145    -0.00074358493824628
 146    0.0036939636684482
 147    0.0071987810611906
 148    -4.7006145697852e-05
 149    -0.0004003706328852
 150    -0.00022754597793705
 151    0.00030443047100673
 152    -0.00027742797775046
 153    -0.00019796617269402
 154    -0.0013416029523858
 155    0.0034866925521418
 156    -0.0033239270672451
 157    -0.0015091157770318
 158    0.0025366813845379
 159    7.2073483222185e-05
 160    -0.0030179144476434
 161    0.0042863826285143
 162    0.00013598338488383
 163    -0.0024575271237704
 164     0.008545188753016
 165    0.00045879340359485
 166    1.2728958002166e-05
 167    0.00020779266810258
 168    -0.00017295167809425
 169    -3.2561251236025e-05
 170    0.00053508882834309
 171      0.00355051940254
 172    -0.0083147171385055
 173    -0.0044730133491537
 174    0.0072178100775231
 175     0.012859674423441
 176     0.009835291009178
 177    0.0067166618831777
 178    0.0058024354231306
 179    0.0083193257905926
 180    -0.00045225990508866
 181    -0.0006523037152259
 182    -0.00071045001567121
 183    7.1296734663418e-05
 184    -0.00049523968614679
 185    0.0036762215230083
 186    0.0019098424032709
 187    -8.3239623322832e-05
 188    0.00046922696669774
 189    0.00030878849421937
 190    0.0046233730303418
 191    0.0035178566141466
 192    0.0003905235167038
 193    0.00010446885047625
 194    6.5030777734165e-05
 195    -0.00088397984737975
 196    -0.0025853858776976
 197    9.9456325959178e-05
 198    -0.00017336915052988
 199    0.00010871512373397
 200    0.0033463307864742
 201    -0.0070840017383844
 202    -0.0073542227837918
 203     -0.01465627735338
 204     0.003082094858396
 205    0.0038698361625839
 206    -0.011083030896077
 207    0.00018298132742611
 208    0.0010363275281919
 209    0.00087760140545526
 210    -0.00053240136924378
 211    0.00029467440756371
 212    -0.00082032132729031
 213    -1.9754728607854e-05
 214    -0.00016835341895747
 215    -0.0030857893723373
 216    -0.0003082102035307
 217    4.307684679756e-05
 218    0.00015176900352266
 219    0.0065145656170436
 220     0.004844400335296
 221    -0.00029895393539663
 222    1.2753147458537e-05
 223    -0.00015212577158364
 224    -2.089340568752e-05
 225    0.0034640684619816
 226    -5.6123114247014e-06
 227    5.5371700318433e-06
 228    -0.00013953708796962
 229    -0.00075547366564546
 230    0.00087312495627644
 231     0.012031148028168
 232    -0.00019613321113418
 233    0.0016719951061435
 234    0.0013618089103033
 235    -0.0024014989026659
 236    0.00089958021521827
 237    0.0018681936151933
 238    -2.9091665263238e-05
 239    -6.235520869312e-06
 240    7.4855416696127e-05
 241    2.5448824413957e-05
 242    0.00013261776741306
 243    -0.00030544011701738
 244    -0.0038902365079824
 245    4.2104164616428e-05
 246    9.5643576089995e-05
 247    -3.663325749849e-05
 248    -0.00072979217066293
 249    -0.0025698440612513
 250    -1.8195851241868e-05
 251    -6.4846355067355e-05
 252    3.8364817048348e-05
 253    0.0007126599115682
 254    -0.0098742110950775
 255    -0.00014426567965039
 256    -0.00025083008013944
 257    1.6923817769289e-05
 258    -0.0006495622752597
 259    0.00074047532315559
 260     0.010943996875972
 261    -0.00083357909586446
 262    0.0014581660750199
 263    0.00077734054120889
 264    0.00081634733535598
 265    0.0018582428228421
 266    7.5398697010715e-05
 267    -7.1424271751747e-05
 268    -0.00011550074023354
 269    2.2823375090245e-05
 270    6.9839875235952e-05
 271    -5.1521172281177e-05
 272    -0.00058160536966223
 273    -0.002463109348837
 274    3.2368339924319e-05
 275    1.0204538904349e-05
 276    -8.0179781817553e-05
 277    0.00049675327447115
 278    -0.0081748850113277
 279    0.00017259090335584
 280    2.0784656521492e-06
 281    -0.00013178714140113
 282    -0.00026730130007693
 283    -0.0039834030578785
 284    -4.8407944007404e-05
 285    -1.2492071425518e-05
 286    0.00010397418331762
 Sym= A
 Ene=               1
 Spin= Alpha
 Occup=    1.00000
   1    0.00065158383038145
   2    -0.0019511839626183
   3    0.0086166118425917
   4    -0.016061002665495
   5     0.019541854309379
   6    0.00098989567318988
   7    0.00097779859105588
   8    0.00064050091849922
   9    -0.0031452036986357
  10    -0.0030001492925008
  11    -0.0019374718632932
  12    0.0062825331168428
  13    -0.00023552787318655
  14    2.1912710240541e-05
  15    -0.00056009045313332
  16      0.33774605798764
  17      0.68729405098944
  18     -0.16311228524369
  19     -0.39271009162653
  20    -0.00058872065373838
  21     0.087819714216504
  22      0.18306841237128
  23    -0.044840416899502
  24     -0.10403058015358
  25    -0.00023210470661262
  26    0.00022831979028097
  27    9.8600555189711e-05
  28    -0.00031079913078123
  29    0.00017783313075757
  30    0.00023467427138834
  31    -8.4596475695561e-05
  32    -0.00046397152732157
  33    -0.0032097051425588
  34    0.0072591893502369
  35    0.0066453332593912
  36    -0.010026413049369
  37    -0.0051380988145137
  38     0.015971620593015
  39    -0.025218011265817
  40    -0.013600209214368
  41     0.040656811164593
  42    -0.035887236417256
  43     -0.02681577546041
  44     0.069341939929843
  45    -0.00079441347312803
  46    0.0028175669245715
  47    -0.0018617901138329
  48    -0.0014238892755777
  49    0.0003691770796971
  50    -0.00075452583268198
  51    -0.005054600194912
  52    0.0092012717845134
  53    0.0085208863413119
  54    0.0049511044289003
  55     0.015417935732687
  56    -0.0052205884767154
  57     0.012381977849485
  58     0.039294103058314
  59    -0.013535166512627
  60     0.015395255240089
  61     0.062442688557787
  62    -0.028028243776827
  63    0.0021721852966513
  64    -0.00022467541769346
  65    -0.00070850892698117
  66    0.0023435270035642
  67    -0.0018405021602592
  68     0.001919411002044
  69    -0.0054740909833678
  70     0.026693131063365
  71    -0.045524693623803
  72    0.0061418921720273
  73    0.00082920983725003
  74    -0.0034844192929652
  75    -0.0020304639273776
  76    -0.0027101342474684
  77     0.011405294435648
  78    0.0066617521828297
  79    0.0037364146760374
  80    -0.019473782153046
  81    -0.010806775826856
  82    0.0036865699472657
  83    -0.00085004144769879
  84    -0.0063645160017664
  85    -0.00034239000128725
  86    0.0022587688057464
  87    0.0046695433647279
  88    -0.0020076983799082
  89    -0.0041901281701573
  90    -0.004472498236264
  91    0.00036255340018407
  92    2.5606440534484e-05
  93    -0.0002153403150214
  94    0.00012402498187435
  95    -0.00029283910975944
  96    -0.00022582174912005
  97    0.00019701314938862
  98    -0.00051278722759151
  99    0.00031514881554342
 100    0.0019998462475095
 101    -0.0012267235996671
 102    -0.0077254285223083
 103    -0.0066711336357391
 104    -0.021150799641214
 105    0.0027705057845573
 106    -0.011253643996302
 107    -0.036476816372795
 108    0.0047199333901681
 109    -0.019704655023665
 110    -0.062473207477395
 111     0.008612962980975
 112    -0.00043562289355715
 113    -0.0010501616106784
 114    -0.0019687000196864
 115     0.001162658396999
 116    -0.00010402596005472
 117    -0.00018693839905761
 118    -0.0012869586088768
 119    0.0033259906404507
 120    -0.0011645825825006
 121     0.012832724877864
 122    0.0019133972856547
 123     -0.01404856411272
 124     0.021999229525543
 125    0.0029781160278116
 126    -0.024369828549696
 127     0.038979304173923
 128    0.0078923456227948
 129    -0.039983052664317
 130    0.00050383463311418
 131    0.00043106049043099
 132    -0.0019675924081255
 133    0.00016219765484558
 134    0.0006444955730685
 135    -0.00052781301621284
 136    -0.0034873794624629
 137    0.0056253279463646
 138    0.0048696113575806
 139    -0.00027050322483158
 140    0.0010308657138205
 141    0.0039170372655659
 142    -0.0009247571044802
 143    0.0018323857330484
 144    0.0069776231271767
 145    0.0026035479986809
 146    0.0032985844333746
 147     0.011286535499922
 148    0.00013859944218746
 149    0.00082487938419172
 150    -0.00038778257324253
 151    -0.00037941184279084
 152    0.00035680357180024
 153    -0.00044677798886908
 154    -0.0029492011835239
 155    0.0048642830157169
 156    0.0035221079119544
 157    -0.00062926440077909
 158    0.0035935747355342
 159    -0.00072329282021434
 160    -0.00075437852713281
 161    0.0064981630572272
 162    -0.0012504984763251
 163    -0.0045452834127754
 164    0.0092839090112597
 165    -0.0020431330322232
 166    0.00039686895214462
 167    -9.1272591671115e-05
 168    -0.00027233054697188
 169    0.00025859910099284
 170    -0.00069153153735657
 171    0.00035906382975222
 172    -0.0016453200052814
 173    0.0086166071985782
 174    0.00013353917945116
 175    0.0020195601124584
 176    0.0065016889733548
 177    0.0025578000062359
 178    -0.00076349807531572
 179    0.0081653684624412
 180    0.00084230832491392
 181    -0.00020982753068731
 182    0.00020052584585127
 183    -0.00055787357952714
 184    -0.0010695810408115
 185    -0.0057336833319528
 186    -0.006375193050917
 187    3.3352022723921e-05
 188    -2.9195530046564e-05
 189    -0.0001907432552829
 190    0.0043928714506412
 191     0.002262405417298
 192    0.0001604128582947
 193    -5.1926715960553e-06
 194    0.00021246458372466
 195    0.0026672582627869
 196    -0.009816481416364
 197    -7.8814132071999e-05
 198    0.00016019250482474
 199    -0.00025545725490434
 200    -0.0011776749156738
 201    0.0025930739244816
 202    0.0035551276164559
 203    0.0044351965793129
 204    0.0040894108177511
 205    -0.0026252163591932
 206    0.0034445831152503
 207    0.0054341410217457
 208    -0.002028721113817
 209    -3.4206298915806e-05
 210    0.00022930095963614
 211    -0.00046211365195862
 212    -0.00038752439485311
 213    -0.0015429746261808
 214    -0.0064060903412178
 215    -0.0018916786634067
 216    0.00031285245473662
 217    -0.00033688345463359
 218    -0.00035590805675019
 219    -0.00067555726923633
 220    -0.0013053523628414
 221    3.762940761324e-05
 222    0.00018577521563291
 223    -2.2730190313434e-05
 224    0.0059748791142672
 225    -0.0031543890640325
 226    1.2261544768743e-05
 227    -0.00030655384137768
 228    0.00038963576949997
 229    0.00071030247502872
 230    -0.00070993668065691
 231    -0.0093681504838291
 232    -0.0011917390875758