[Molden Format]
made by pyscf v[2.2.1]
[Atoms] (AU)
Fe   1   26    10.35569916261654     2.17318504324982   -15.17450078025744
S   2   16     7.65339080448850    -1.15273293598469   -16.53510358994429
S   3   16    14.15404867299231     0.79368497231733   -17.08312416606816
Fe   4   26    11.41394579237297    -2.30546587196938   -18.19806257956155
S   5   16    10.33680190137089     2.36215765570633   -10.54467177507304
S   6   16     8.74943195673624     6.19830168857340   -16.57289811243559
S   7   16    10.86592521624911    -2.83458918684759   -22.77119980100900
S   8   16    12.96352121451632    -6.44396608476686   -16.74297346364645
C   9   6    10.41239094635349     8.40928125431453   -14.19184319548361
H   10   1    12.26432254842725     9.12737718164925   -14.96663090655529
H   11   1     9.20296622663185    10.07224024393178   -13.70051440309670
H   12   1    10.80923343251215     7.25654831832984   -12.45329516088376
C   13   6     6.80301404843422     3.21253441176060   -10.46908273009044
H   14   1     5.68807563494084     1.51178089965205   -10.99820604496866
H   15   1     6.19830168857340     3.89283581660403    -8.54156208303408
H   16   1     6.46286334601251     4.68652078892135   -11.92417184600554
C   17   6     9.84547310898397    -7.97464424566456   -17.87680913838549
H   18   1     9.63760323528181    -7.57780175950590   -19.93661061416140
H   19   1     9.84547310898397   -10.05334298268613   -17.49886391347247
H   20   1     8.25810316434932    -7.02978118338203   -16.87525429236600
C   21   6    14.41861033043142    -3.49599333044536   -23.13024776467636
H   22   1    14.92883638406399    -3.89283581660403   -25.15225471796098
H   23   1    15.49575422143351    -1.81413707958246   -22.41215183734163
H   24   1    14.90993912281834    -5.14005505881697   -21.90192578370907
[GTO]
1 0
 s    6 1.00
          60923.640643  0.0017552243692958
          9147.8893982   0.013449023284001
          2081.3505927   0.066678874640978
          587.55977067    0.23176348548844
           191.0904399    0.46945550248188
          65.732730112     0.3596824938678
 s    3 1.00
          127.25891928   -0.10723431835929
           14.83091301    0.62971616328466
          6.0653307408    0.44472317896179
 s    3 1.00
           10.44994371   -0.21694289195548
          1.7245228003    0.69457867408393
         0.71772177325    0.43298308896347
 s    1 1.00
        0.091449828308                   1
 s    1 1.00
        0.033706691021                   1
 p    5 1.00
          773.43750995  0.0091440529992506
          182.15149714   0.067887577136571
          57.547272758    0.26167978878504
          20.614988935    0.51088040113251
           7.634855789    0.33235475570224
 p    3 1.00
           3.871932799    0.33193859098144
          1.4924724132     0.5553666555499
         0.56061284958    0.23106034201617
 p    1 1.00
              0.134915                   1
 d    4 1.00
          38.968133419   0.033335938558743
          10.800067078    0.17766212505983
          3.6136457999      0.441281781625
          1.2129967888    0.57089200490673
 d    1 1.00
          0.3652439317                   1
 f    1 1.00
                 1.598                   1

2 0
 s    5 1.00
           9184.930301  -0.0054729466134731
          1381.5105503  -0.040954402155135
           313.8714758   -0.18475828956188
          88.053870623   -0.47567280643953
          27.039914905   -0.43495153584169
 s    3 1.00
          45.648731303  -0.091904045808942
          4.9664522326    0.55698777214497
          2.0116242047     0.5111546829846
 s    1 1.00
         0.35661077013                   1
 s    1 1.00
         0.13507221477                   1
 p    5 1.00
          261.98233439  -0.009183054659266
          61.306894736   -0.06590222652599
          19.103729887   -0.24587784518735
          6.6567720378    -0.4823147107602
          2.3959635161   -0.38956314351423
 p    1 1.00
         0.61776161679                   1
 p    1 1.00
         0.16993376871                   1
 d    1 1.00
                  0.55                   1

3 0
 s    5 1.00
           9184.930301  -0.0054729466134731
          1381.5105503  -0.040954402155135
           313.8714758   -0.18475828956188
          88.053870623   -0.47567280643953
          27.039914905   -0.43495153584169
 s    3 1.00
          45.648731303  -0.091904045808942
          4.9664522326    0.55698777214497
          2.0116242047     0.5111546829846
 s    1 1.00
         0.35661077013                   1
 s    1 1.00
         0.13507221477                   1
 p    5 1.00
          261.98233439  -0.009183054659266
          61.306894736   -0.06590222652599
          19.103729887   -0.24587784518735
          6.6567720378    -0.4823147107602
          2.3959635161   -0.38956314351423
 p    1 1.00
         0.61776161679                   1
 p    1 1.00
         0.16993376871                   1
 d    1 1.00
                  0.55                   1

4 0
 s    6 1.00
          60923.640643  0.0017552243692958
          9147.8893982   0.013449023284001
          2081.3505927   0.066678874640978
          587.55977067    0.23176348548844
           191.0904399    0.46945550248188
          65.732730112     0.3596824938678
 s    3 1.00
          127.25891928   -0.10723431835929
           14.83091301    0.62971616328466
          6.0653307408    0.44472317896179
 s    3 1.00
           10.44994371   -0.21694289195548
          1.7245228003    0.69457867408393
         0.71772177325    0.43298308896347
 s    1 1.00
        0.091449828308                   1
 s    1 1.00
        0.033706691021                   1
 p    5 1.00
          773.43750995  0.0091440529992506
          182.15149714   0.067887577136571
          57.547272758    0.26167978878504
          20.614988935    0.51088040113251
           7.634855789    0.33235475570224
 p    3 1.00
           3.871932799    0.33193859098144
          1.4924724132     0.5553666555499
         0.56061284958    0.23106034201617
 p    1 1.00
              0.134915                   1
 d    4 1.00
          38.968133419   0.033335938558743
          10.800067078    0.17766212505983
          3.6136457999      0.441281781625
          1.2129967888    0.57089200490673
 d    1 1.00
          0.3652439317                   1
 f    1 1.00
                 1.598                   1

5 0
 s    5 1.00
           9184.930301  -0.0054729466134731
          1381.5105503  -0.040954402155135
           313.8714758   -0.18475828956188
          88.053870623   -0.47567280643953
          27.039914905   -0.43495153584169
 s    3 1.00
          45.648731303  -0.091904045808942
          4.9664522326    0.55698777214497
          2.0116242047     0.5111546829846
 s    1 1.00
         0.35661077013                   1
 s    1 1.00
         0.13507221477                   1
 p    5 1.00
          261.98233439  -0.009183054659266
          61.306894736   -0.06590222652599
          19.103729887   -0.24587784518735
          6.6567720378    -0.4823147107602
          2.3959635161   -0.38956314351423
 p    1 1.00
         0.61776161679                   1
 p    1 1.00
         0.16993376871                   1
 d    1 1.00
                  0.55                   1

6 0
 s    5 1.00
           9184.930301  -0.0054729466134731
          1381.5105503  -0.040954402155135
           313.8714758   -0.18475828956188
          88.053870623   -0.47567280643953
          27.039914905   -0.43495153584169
 s    3 1.00
          45.648731303  -0.091904045808942
          4.9664522326    0.55698777214497
          2.0116242047     0.5111546829846
 s    1 1.00
         0.35661077013                   1
 s    1 1.00
         0.13507221477                   1
 p    5 1.00
          261.98233439  -0.009183054659266
          61.306894736   -0.06590222652599
          19.103729887   -0.24587784518735
          6.6567720378    -0.4823147107602
          2.3959635161   -0.38956314351423
 p    1 1.00
         0.61776161679                   1
 p    1 1.00
         0.16993376871                   1
 d    1 1.00
                  0.55                   1

7 0
 s    5 1.00
           9184.930301  -0.0054729466134731
          1381.5105503  -0.040954402155135
           313.8714758   -0.18475828956188
          88.053870623   -0.47567280643953
          27.039914905   -0.43495153584169
 s    3 1.00
          45.648731303  -0.091904045808942
          4.9664522326    0.55698777214497
          2.0116242047     0.5111546829846
 s    1 1.00
         0.35661077013                   1
 s    1 1.00
         0.13507221477                   1
 p    5 1.00
          261.98233439  -0.009183054659266
          61.306894736   -0.06590222652599
          19.103729887   -0.24587784518735
          6.6567720378    -0.4823147107602
          2.3959635161   -0.38956314351423
 p    1 1.00
         0.61776161679                   1
 p    1 1.00
         0.16993376871                   1
 d    1 1.00
                  0.55                   1

8 0
 s    5 1.00
           9184.930301  -0.0054729466134731
          1381.5105503  -0.040954402155135
           313.8714758   -0.18475828956188
          88.053870623   -0.47567280643953
          27.039914905   -0.43495153584169
 s    3 1.00
          45.648731303  -0.091904045808942
          4.9664522326    0.55698777214497
          2.0116242047     0.5111546829846
 s    1 1.00
         0.35661077013                   1
 s    1 1.00
         0.13507221477                   1
 p    5 1.00
          261.98233439  -0.009183054659266
          61.306894736   -0.06590222652599
          19.103729887   -0.24587784518735
          6.6567720378    -0.4823147107602
          2.3959635161   -0.38956314351423
 p    1 1.00
         0.61776161679                   1
 p    1 1.00
         0.16993376871                   1
 d    1 1.00
                  0.55                   1

9 0
 s    5 1.00
          1238.4016938  0.0055173650481097
          186.29004992   0.041088828555946
          42.251176346     0.1822538212649
          11.676557932    0.46828459437429
          3.5930506482    0.44575817336002
 s    1 1.00
         0.40245147363                   1
 s    1 1.00
         0.13090182668                   1
 p    3 1.00
          9.4680970621   0.056888332011037
          2.0103545142    0.31294059336471
         0.54771004707    0.76065016509135
 p    1 1.00
         0.15268613795                   1
 d    1 1.00
                   0.8                   1

10 0
 s    3 1.00
             13.010701   0.033485484812989
             1.9622572    0.23472187088125
            0.44453796    0.81377028525955
 s    1 1.00
            0.12194962                   1
 p    1 1.00
                   0.8                   1

11 0
 s    3 1.00
             13.010701   0.033485484812989
             1.9622572    0.23472187088125
            0.44453796    0.81377028525955
 s    1 1.00
            0.12194962                   1
 p    1 1.00
                   0.8                   1

12 0
 s    3 1.00
             13.010701   0.033485484812989
             1.9622572    0.23472187088125
            0.44453796    0.81377028525955
 s    1 1.00
            0.12194962                   1
 p    1 1.00
                   0.8                   1

13 0
 s    5 1.00
          1238.4016938  0.0055173650481097
          186.29004992   0.041088828555946
          42.251176346     0.1822538212649
          11.676557932    0.46828459437429
          3.5930506482    0.44575817336002
 s    1 1.00
         0.40245147363                   1
 s    1 1.00
         0.13090182668                   1
 p    3 1.00
          9.4680970621   0.056888332011037
          2.0103545142    0.31294059336471
         0.54771004707    0.76065016509135
 p    1 1.00
         0.15268613795                   1
 d    1 1.00
                   0.8                   1

14 0
 s    3 1.00
             13.010701   0.033485484812989
             1.9622572    0.23472187088125
            0.44453796    0.81377028525955
 s    1 1.00
            0.12194962                   1
 p    1 1.00
                   0.8                   1

15 0
 s    3 1.00
             13.010701   0.033485484812989
             1.9622572    0.23472187088125
            0.44453796    0.81377028525955
 s    1 1.00
            0.12194962                   1
 p    1 1.00
                   0.8                   1

16 0
 s    3 1.00
             13.010701   0.033485484812989
             1.9622572    0.23472187088125
            0.44453796    0.81377028525955
 s    1 1.00
            0.12194962                   1
 p    1 1.00
                   0.8                   1

17 0
 s    5 1.00
          1238.4016938  0.0055173650481097
          186.29004992   0.041088828555946
          42.251176346     0.1822538212649
          11.676557932    0.46828459437429
          3.5930506482    0.44575817336002
 s    1 1.00
         0.40245147363                   1
 s    1 1.00
         0.13090182668                   1
 p    3 1.00
          9.4680970621   0.056888332011037
          2.0103545142    0.31294059336471
         0.54771004707    0.76065016509135
 p    1 1.00
         0.15268613795                   1
 d    1 1.00
                   0.8                   1

18 0
 s    3 1.00
             13.010701   0.033485484812989
             1.9622572    0.23472187088125
            0.44453796    0.81377028525955
 s    1 1.00
            0.12194962                   1
 p    1 1.00
                   0.8                   1

19 0
 s    3 1.00
             13.010701   0.033485484812989
             1.9622572    0.23472187088125
            0.44453796    0.81377028525955
 s    1 1.00
            0.12194962                   1
 p    1 1.00
                   0.8                   1

20 0
 s    3 1.00
             13.010701   0.033485484812989
             1.9622572    0.23472187088125
            0.44453796    0.81377028525955
 s    1 1.00
            0.12194962                   1
 p    1 1.00
                   0.8                   1

21 0
 s    5 1.00
          1238.4016938  0.0055173650481097
          186.29004992   0.041088828555946
          42.251176346     0.1822538212649
          11.676557932    0.46828459437429
          3.5930506482    0.44575817336002
 s    1 1.00
         0.40245147363                   1
 s    1 1.00
         0.13090182668                   1
 p    3 1.00
          9.4680970621   0.056888332011037
          2.0103545142    0.31294059336471
         0.54771004707    0.76065016509135
 p    1 1.00
         0.15268613795                   1
 d    1 1.00
                   0.8                   1

22 0
 s    3 1.00
             13.010701   0.033485484812989
             1.9622572    0.23472187088125
            0.44453796    0.81377028525955
 s    1 1.00
            0.12194962                   1
 p    1 1.00
                   0.8                   1

23 0
 s    3 1.00
             13.010701   0.033485484812989
             1.9622572    0.23472187088125
            0.44453796    0.81377028525955
 s    1 1.00
            0.12194962                   1
 p    1 1.00
                   0.8                   1

24 0
 s    3 1.00
             13.010701   0.033485484812989
             1.9622572    0.23472187088125
            0.44453796    0.81377028525955
 s    1 1.00
            0.12194962                   1
 p    1 1.00
                   0.8                   1

[5d]
[7f]
[9g]

[MO]
 Sym= A
 Ene=               0
 Spin= Alpha
 Occup=    1.00000
   1    -0.00015894578023322
   2    0.0004478074859446
   3    -0.0022518751671345
   4    0.0054612060600937
   5    -0.0031911682855669
   6    0.00025195112119002
   7    0.0028256150769335
   8    -0.0033960826171216
   9    -0.00091191265657882
  10    -0.0093070368525451
  11     0.011157015802736
  12    0.0032242444425805
  13     0.017944838647146
  14    -0.020797594284881
  15      0.65815516994158
  16     0.048142830261263
  17      0.31576992477904
  18      0.16817466498844
  19      0.47191588085869
  20      0.17834065247142
  21     0.013084094592785
  22     0.085550409475894
  23     0.045611434182237
  24      0.12801454165792
  25    -0.00017206887688764
  26    -5.5330717587627e-05
  27    0.00011915639819923
  28    3.5274924836351e-05
  29    0.00024632310837795
  30    6.1459557862476e-06
  31    3.2277773540375e-05
  32    0.00080087920338442
  33    0.0050571976216784
  34    -0.0060247468764546
  35    -0.0063227891079561
  36    -0.00080430138377307
  37    -0.0080971955298425
  38    0.0071149275692455
  39    -0.0005994023791117
  40    -0.0056861821042648
  41    0.0049677499016247
  42    -0.0036324472949664
  43    -0.015277646022468
  44     0.010730979051588
  45    -0.001298939218516
  46    -0.0012488756095402
  47    -0.0011628347583598
  48    -0.0015756551757718
  49     0.001215558545658
  50    -0.00071148653566346
  51    -0.0044971075580688
  52    0.0053716799112817
  53    0.0054267772004561
  54    -0.00067649934560718
  55    -0.0060188336478398
  56     0.010914661284055
  57    -0.00063155749694436
  58    -0.0042424566841406
  59    0.0077696006159732
  60    -0.0040103453124953
  61    -0.0088237551103187
  62     0.019174226041408
  63    -0.0020573706224845
  64    0.0027239547650108
  65    -3.6796557262043e-06
  66    -0.0005715317043193
  67    -0.0013468586600243
  68    -8.1536507046465e-06
  69    1.8692075314832e-05
  70    -0.00013322150309763
  71    0.00010508709976838
  72    0.0017349528641049
  73    0.00054065234687019
  74    -7.6302170188485e-05
  75    0.00024786990839038
  76    -0.0016461396283424
  77    0.0001929079998815
  78    -0.00069848157869811
  79    0.0017012229202927
  80    -0.00050484678101019
  81    0.0013103516173565
  82    0.0013764422154519
  83    -0.00060449154655377
  84    0.00059308605600355
  85    0.0006873475431827
  86    -0.00022301567963358
  87    -0.0008560613557098
  88    0.00018795765159602
  89    -0.00037119261684983
  90    -0.00038095084267657
  91    -0.00017585525257513
  92    -8.4387369781223e-05
  93    1.3858645540393e-05
  94    -0.00014237671954428
  95    4.6626601404502e-05
  96    7.0898473042827e-05
  97    6.7470786206789e-05
  98    -7.2961440737934e-05
  99    0.0020351258895823
 100     0.012745591107231
 101    -0.014719446382655
 102    -0.018459500485272
 103    -0.0019825522360964
 104    -0.0029691064698176
 105    0.0093485059126063
 106    -0.003533407021277
 107    -0.005104922553538
 108     0.015215808685074
 109    -0.0032139152017365
 110    -0.010181126012619
 111     0.038460688857029
 112    0.0018278709020635
 113    -0.00074831357057137
 114     -0.00125574596403
 115    0.00037107692752458
 116    0.00044902430741839
 117    -0.0022527434233178
 118    -0.014204653122014
 119     0.016808433794346
 120     0.020551823383346
 121    8.3340527517794e-05
 122    -0.0085684665321251
 123    0.0053398867032952
 124    -0.00013191856273457
 125    -0.014411029796115
 126    0.0089589043507101
 127    0.0052399909950449
 128    -0.033820027012158
 129     0.022748093798279
 130    0.00060430930957879
 131    -0.00048548159249232
 132    0.0019951237886594
 133    0.0017030825713921
 134    -0.00025702811537551
 135    -7.0106996976101e-05
 136    -0.00048584004853382
 137    0.0011181480340082
 138    0.00011257605938836
 139    -8.9441403917169e-05
 140    -5.4971841547699e-05
 141    -5.863462381133e-05
 142    -0.00020527140146013
 143    5.4214350531201e-05
 144    -1.4962779189658e-05
 145    0.00019316097690233
 146    -0.00073175997617412
 147    -7.9270601540726e-05
 148    -6.4346247826198e-05
 149    6.7229065111433e-05
 150    -0.00022750962398686
 151    4.5838456089047e-05
 152    -1.1364841784845e-05
 153    8.0395444403264e-05
 154    0.00054909082551531
 155    -0.0010343179482138
 156    -0.00095655205068469
 157    -0.00011451436976895
 158    -3.3910124856159e-05
 159    6.5194656923032e-05
 160    -0.00020876678974356
 161    -0.00020390062654578
 162    3.6096845837733e-06
 163    6.5478333729354e-05
 164    5.737629205406e-05
 165    0.00087850398191059
 166    -0.00015336782587825
 167    -5.550736511217e-05
 168    0.00012255984395621
 169    -0.00015896142732515
 170    -3.673968442045e-05
 171    0.00020653556814025
 172    0.00036847987507165
 173    -0.0043477918399595
 174    0.0003995431539633
 175    1.8658818268404e-05
 176    0.0003780342410952
 177    0.0015413125996119
 178    0.0016003425335019
 179    0.0042923212200658
 180    -0.00062614372025542
 181    -0.00031724963850085
 182    0.00041794739660667
 183    -0.00025663164694877
 184    0.00028858843111664
 185     0.001297167027468
 186    0.0023281938817084
 187    1.304669114432e-05
 188    -6.3514115133755e-06
 189    1.2439668802676e-05
 190    0.0013578344866723
 191    0.0022238063646332
 192    8.6854363796419e-05
 193    0.00012048334665577
 194    6.7000903386191e-05
 195    -0.003775801533003
 196    -0.0054057438412917
 197    -5.1504844736345e-05
 198    -0.0001416476983717
 199    -0.00016019592795771
 200    0.00010922480347154
 201    -0.00082643378263577
 202    0.0016821888008407
 203    -0.00052131892589312
 204     0.000147917850142
 205    0.00016789497079496
 206    0.0041141442184716
 207    -0.0022306921592745
 208    0.00016218002221161
 209    0.0001315691820297
 210    0.00057716329294159
 211    -0.00036360670938032
 212    -0.00022250370776781
 213    -0.00018621273304101
 214    -0.00034035110730034
 215    0.0015239359827057
 216    -8.1352112764581e-05
 217    0.00013328587157478
 218    4.9963731784737e-05
 219    -0.0019391813277292
 220    -0.0018430911308352
 221    0.00017309520217286
 222    4.5564828734529e-06
 223    3.4214785693685e-06
 224    0.0033059704557228
 225    0.0056160631530613
 226    -0.00026299795661934
 227    0.00010403264170035
 228    5.9237128482324e-05
 229    0.00014454714397153
 230    -0.00016717590453626
 231    -0.0028712391753184
 232    0.00059046730133564
 233    -0.00038198842227099
 234    -0.00028273387645447
 235    0.0021968830445671
 236    -0.00011129943503665
 237    -0.001160220764429
 238    1.7320842639091e-05
 239    5.3351388873765e-05
 240    -2.251380171068e-05
 241    -1.1383956571629e-05
 242    2.4728348469389e-05
 243    3.150371645291e-05
 244    -0.00033896077077386
 245    -4.9228813068385e-05
 246    -2.104738510812e-05
 247    -3.124278397956e-05
 248    0.00031955971109586
 249    0.00057379632508888
 250    -1.8238899020481e-05
 251    2.6920361426662e-05
 252     7.33750257414e-06
 253    -0.00045529610605558
 254    0.0041953651156623
 255    7.3711959192783e-05
 256    6.9198186096847e-05
 257    -3.651293875519e-05
 258    -0.00013351262462781
 259    8.2205926379708e-05
 260    0.0035060330433492
 261    0.0002981528475051
 262    0.00052387214067493
 263    0.00032220955799955
 264    0.0019349091643868
 265     0.001665049288317
 266    9.8745562178769e-06
 267    -1.7740584145257e-05
 268    7.0973976948136e-06
 269    3.6464061223378e-05
 270    -2.2502914700255e-05
 271    5.2241564771768e-05
 272    -0.00035608060908418
 273    -0.0007399689325782
 274    -1.7632545539583e-05
 275    -2.6148123732012e-05
 276    -3.3844849967981e-05
 277    0.00047954173474338
 278    -0.0047498485850604
 279    9.9071737320213e-05
 280    5.6682920495025e-05
 281    -3.7480281893917e-05
 282    -3.3348102073949e-05
 283    -0.00021977767095806
 284    -5.5597219156926e-05
 285    1.0485736840331e-05
 286    4.2602883503718e-07
 Sym= A
 Ene=               1
 Spin= Alpha
 Occup=    1.00000
   1    -9.8510159304204e-05
   2    0.00029591770224002
   3    -0.0011546266681461
   4    0.0036298929229096
   5    -0.0086094421643714
   6    -0.0032929883595799
   7    0.0023708485237678
   8    0.0015728127477465
   9      0.01090294368912
  10    -0.0078709491969535
  11    -0.0052193736592053
  12    -0.023570420039183
  13     0.017159831263206
  14     0.013376729530992
  15     -0.26746318281862
  16     -0.30728043915924
  17      0.32826814550573
  18      0.71084075666679
  19    -0.068677885353444
  20    -0.071627599997217
  21     -0.08410025946505
  22     0.088569230317494
  23        0.193324921087
  24    -0.019020190625915
  25    -5.8828838558532e-05
  26    -4.5097491010414e-05
  27    -1.9265460823176e-05
  28    0.00021782156943898
  29    -9.6454681914303e-05
  30    4.980269258076e-05
  31    0.00032031781719051
  32    -0.00011424092514729
  33    -0.00072944412209856
  34    0.00097810988506236
  35    0.00046345445080455
  36    0.0088098280143565
  37    -0.0045647682792058
  38    -0.00076874052061337
  39    0.0061860062083787
  40    -0.003264430754206
  41    -0.00049462140112223
  42     0.014106666217824
  43    -0.0052232522734416
  44    -5.4003636861575e-06
  45    -0.00038060103633587
  46    -0.001407357381685
  47    0.0013877684045152
  48    -0.0023023803123472
  49    -0.0014609419446568
  50    0.0023250676659211
  51     0.014667298645293
  52     -0.01719888324762
  53    -0.018036745012452
  54     0.006069731274739
  55    -0.0081078355436754
  56     -0.00620712254473
  57    0.0044803828222164
  58    -0.0057383309036482
  59    -0.0044429807067017
  60     0.019839014360595
  61    -0.014630414827072
  62    -0.013899340227343
  63    -3.2449272438276e-05
  64    -0.0017559181998227
  65    0.0019123254351996
  66    9.2400712823714e-05
  67    -0.0021410480843789
  68    -7.8900442376123e-05
  69    0.00015636342718575
  70    -0.0014649436648947
  71    0.0046984481552731
  72    0.0074516031379442
  73    -0.00064488714269951
  74    -0.00075159112242567
  75    -0.0002097169752804
  76    0.0019956836247503
  77    0.0023181623225823
  78    0.00067348087052837
  79    -0.001972350820579
  80    -0.0021785942776292
  81    -0.00077196233256161
  82     0.001152705751142
  83    0.00098623984816777
  84    0.0014209617221717
  85    -0.0025362155848367
  86    -0.00040446906575498
  87    -0.00040957868793597
  88    -0.00024599607703397
  89    -0.00034761593229861
  90    0.00053736461400913
  91    0.00019383526750829
  92    2.0484015928466e-05
  93    8.3994892413784e-06
  94    -4.6537959463929e-05
  95    0.00011452942493269
  96    -1.5815687547459e-05
  97    2.5114498397794e-06
  98    5.0669211586751e-05
  99    -0.0010260184780131
 100    -0.006508162307689
 101    0.0088469949278052
 102    0.0078085097700763
 103    0.0019550022728601
 104    -0.0034797016736698
 105    -0.002415122012797
 106     0.003305268391567
 107    -0.0060598719218074
 108    -0.0041808370422517
 109    0.0052520256660398
 110    -0.010749200198325
 111    -0.0080740558950397
 112    0.00039764593417155
 113    0.0018288016819614
 114    -0.0017347020947151
 115    -0.0004503742723515
 116    0.00078743315229614
 117    -0.0014686898466546
 118    -0.0092324204981514
 119     0.010388726644163
 120     0.014774227457828
 121    0.0078332200407303
 122    -0.0042914607138166
 123    -0.0030936232027109
 124     0.013366504501258
 125    -0.0071141026234024
 126    -0.0055855174079477
 127     0.028744304992281
 128    -0.017568668732705
 129    -0.0066604859154042
 130    0.0010364712793962
 131    -0.00032157499011619
 132    -0.0015026290886032
 133    0.00011765861752509
 134    0.0029739691303603
 135    8.3732927165082e-05
 136    0.00052943746305453
 137    -5.4363769869537e-05
 138    -0.0038157360193855
 139    8.4778108574008e-05
 140    0.00022527049090472
 141    -0.00071392569267312
 142    0.00014890814409699
 143    0.00035649194863208
 144    -0.0011268457787148
 145    4.8950580360978e-05
 146    0.00089073756623385
 147    -0.0034385138510158
 148    2.1560274555688e-05
 149    -0.00010187212052562
 150    9.5594742319705e-05
 151    -2.9263798753061e-06
 152    2.7625166584668e-05
 153    9.3729141792168e-05
 154    0.00062210715963133
 155    -0.00071753775101034
 156    -0.0027196554942575
 157    0.00014671442125667
 158    -0.00043908983287173
 159    0.00034186252412895
 160    0.0002080775859997
 161    -0.00084060117079471
 162    0.00052181235621254
 163    0.0009924400960205
 164    -0.0017171229140737
 165    0.0016052553782487
 166    -0.00012024195444029
 167    -9.4652035033165e-05
 168    4.7417383930924e-05
 169    -0.0001165284811926
 170    -5.0156106108362e-05
 171    5.8821817229582e-05
 172    0.00075609045492922
 173    -0.0043535915530312
 174    -0.000430339038456
 175    -0.00034812803526989
 176    0.00090562041299094
 177    0.0013290302803544
 178    0.0025586072987399
 179    0.0018092707770356
 180    0.00019878464830047
 181    -0.00026181079502908
 182    0.00044301527814724
 183    -0.00051287323001596
 184    -0.00034691348587357
 185    -0.0026809793422585
 186    -0.0016437323690111
 187    7.4493198846335e-06
 188    -0.00021086247064094
 189    -0.00017717220903176
 190    0.0026690559211951
 191     0.002710589470156
 192    5.4650915976808e-05
 193    8.5584964669454e-05
 194    0.0002249701830072
 195    9.2952033239318e-05
 196    -0.0002865572132536
 197    -9.1342221231983e-05
 198    3.9016553554573e-05
 199    -3.8657213984896e-05
 200    0.0023996255009401
 201    -0.0057783728116298
 202    -0.001153377382467
 203    -0.0053905482021206
 204    0.0012187635964583
 205    0.0039711088844263
 206    -0.0049546816735843
 207    0.00041057367590131
 208    -0.0014609793774892
 209    0.00066136004955457
 210    -0.0008243807547135
 211    0.00045121026174655
 212    -0.00017925527670528
 213    -0.00023416036774326
 214    -0.002785193103099
 215    -0.0012465090867468
 216    -8.0823877568427e-05
 217    -0.00013360506440819
 218    0.00012479998729179
 219    0.0053027810178683
 220    0.0055596304153856
 221    -0.00020094419156379
 222    1.3073656857066e-05
 223    -1.4394577670376e-06
 224    -0.0031471729859605
 225    -0.0036944680793374
 226    0.00030768099772299
 227    -3.4858415421753e-05
 228    -0.00046625841619503
 229    0.0001539436934924