[Molden Format]
made by pyscf v[2.2.1]
[Atoms] (AU)
Fe   1   26    10.35569916261654     2.17318504324982   -15.17450078025744
S   2   16     7.65339080448850    -1.15273293598469   -16.53510358994429
S   3   16    14.15404867299231     0.79368497231733   -17.08312416606816
Fe   4   26    11.41394579237297    -2.30546587196938   -18.19806257956155
S   5   16    10.33680190137089     2.36215765570633   -10.54467177507304
S   6   16     8.74943195673624     6.19830168857340   -16.57289811243559
S   7   16    10.86592521624911    -2.83458918684759   -22.77119980100900
S   8   16    12.96352121451632    -6.44396608476686   -16.74297346364645
C   9   6    10.41239094635349     8.40928125431453   -14.19184319548361
H   10   1    12.26432254842725     9.12737718164925   -14.96663090655529
H   11   1     9.20296622663185    10.07224024393178   -13.70051440309670
H   12   1    10.80923343251215     7.25654831832984   -12.45329516088376
C   13   6     6.80301404843422     3.21253441176060   -10.46908273009044
H   14   1     5.68807563494084     1.51178089965205   -10.99820604496866
H   15   1     6.19830168857340     3.89283581660403    -8.54156208303408
H   16   1     6.46286334601251     4.68652078892135   -11.92417184600554
C   17   6     9.84547310898397    -7.97464424566456   -17.87680913838549
H   18   1     9.63760323528181    -7.57780175950590   -19.93661061416140
H   19   1     9.84547310898397   -10.05334298268613   -17.49886391347247
H   20   1     8.25810316434932    -7.02978118338203   -16.87525429236600
C   21   6    14.41861033043142    -3.49599333044536   -23.13024776467636
H   22   1    14.92883638406399    -3.89283581660403   -25.15225471796098
H   23   1    15.49575422143351    -1.81413707958246   -22.41215183734163
H   24   1    14.90993912281834    -5.14005505881697   -21.90192578370907
[GTO]
1 0
 s    6 1.00
          60923.640643  0.0017552243692958
          9147.8893982   0.013449023284001
          2081.3505927   0.066678874640978
          587.55977067    0.23176348548844
           191.0904399    0.46945550248188
          65.732730112     0.3596824938678
 s    3 1.00
          127.25891928   -0.10723431835929
           14.83091301    0.62971616328466
          6.0653307408    0.44472317896179
 s    3 1.00
           10.44994371   -0.21694289195548
          1.7245228003    0.69457867408393
         0.71772177325    0.43298308896347
 s    1 1.00
        0.091449828308                   1
 s    1 1.00
        0.033706691021                   1
 p    5 1.00
          773.43750995  0.0091440529992506
          182.15149714   0.067887577136571
          57.547272758    0.26167978878504
          20.614988935    0.51088040113251
           7.634855789    0.33235475570224
 p    3 1.00
           3.871932799    0.33193859098144
          1.4924724132     0.5553666555499
         0.56061284958    0.23106034201617
 p    1 1.00
              0.134915                   1
 d    4 1.00
          38.968133419   0.033335938558743
          10.800067078    0.17766212505983
          3.6136457999      0.441281781625
          1.2129967888    0.57089200490673
 d    1 1.00
          0.3652439317                   1
 f    1 1.00
                 1.598                   1

2 0
 s    5 1.00
           9184.930301  -0.0054729466134731
          1381.5105503  -0.040954402155135
           313.8714758   -0.18475828956188
          88.053870623   -0.47567280643953
          27.039914905   -0.43495153584169
 s    3 1.00
          45.648731303  -0.091904045808942
          4.9664522326    0.55698777214497
          2.0116242047     0.5111546829846
 s    1 1.00
         0.35661077013                   1
 s    1 1.00
         0.13507221477                   1
 p    5 1.00
          261.98233439  -0.009183054659266
          61.306894736   -0.06590222652599
          19.103729887   -0.24587784518735
          6.6567720378    -0.4823147107602
          2.3959635161   -0.38956314351423
 p    1 1.00
         0.61776161679                   1
 p    1 1.00
         0.16993376871                   1
 d    1 1.00
                  0.55                   1

3 0
 s    5 1.00
           9184.930301  -0.0054729466134731
          1381.5105503  -0.040954402155135
           313.8714758   -0.18475828956188
          88.053870623   -0.47567280643953
          27.039914905   -0.43495153584169
 s    3 1.00
          45.648731303  -0.091904045808942
          4.9664522326    0.55698777214497
          2.0116242047     0.5111546829846
 s    1 1.00
         0.35661077013                   1
 s    1 1.00
         0.13507221477                   1
 p    5 1.00
          261.98233439  -0.009183054659266
          61.306894736   -0.06590222652599
          19.103729887   -0.24587784518735
          6.6567720378    -0.4823147107602
          2.3959635161   -0.38956314351423
 p    1 1.00
         0.61776161679                   1
 p    1 1.00
         0.16993376871                   1
 d    1 1.00
                  0.55                   1

4 0
 s    6 1.00
          60923.640643  0.0017552243692958
          9147.8893982   0.013449023284001
          2081.3505927   0.066678874640978
          587.55977067    0.23176348548844
           191.0904399    0.46945550248188
          65.732730112     0.3596824938678
 s    3 1.00
          127.25891928   -0.10723431835929
           14.83091301    0.62971616328466
          6.0653307408    0.44472317896179
 s    3 1.00
           10.44994371   -0.21694289195548
          1.7245228003    0.69457867408393
         0.71772177325    0.43298308896347
 s    1 1.00
        0.091449828308                   1
 s    1 1.00
        0.033706691021                   1
 p    5 1.00
          773.43750995  0.0091440529992506
          182.15149714   0.067887577136571
          57.547272758    0.26167978878504
          20.614988935    0.51088040113251
           7.634855789    0.33235475570224
 p    3 1.00
           3.871932799    0.33193859098144
          1.4924724132     0.5553666555499
         0.56061284958    0.23106034201617
 p    1 1.00
              0.134915                   1
 d    4 1.00
          38.968133419   0.033335938558743
          10.800067078    0.17766212505983
          3.6136457999      0.441281781625
          1.2129967888    0.57089200490673
 d    1 1.00
          0.3652439317                   1
 f    1 1.00
                 1.598                   1

5 0
 s    5 1.00
           9184.930301  -0.0054729466134731
          1381.5105503  -0.040954402155135
           313.8714758   -0.18475828956188
          88.053870623   -0.47567280643953
          27.039914905   -0.43495153584169
 s    3 1.00
          45.648731303  -0.091904045808942
          4.9664522326    0.55698777214497
          2.0116242047     0.5111546829846
 s    1 1.00
         0.35661077013                   1
 s    1 1.00
         0.13507221477                   1
 p    5 1.00
          261.98233439  -0.009183054659266
          61.306894736   -0.06590222652599
          19.103729887   -0.24587784518735
          6.6567720378    -0.4823147107602
          2.3959635161   -0.38956314351423
 p    1 1.00
         0.61776161679                   1
 p    1 1.00
         0.16993376871                   1
 d    1 1.00
                  0.55                   1

6 0
 s    5 1.00
           9184.930301  -0.0054729466134731
          1381.5105503  -0.040954402155135
           313.8714758   -0.18475828956188
          88.053870623   -0.47567280643953
          27.039914905   -0.43495153584169
 s    3 1.00
          45.648731303  -0.091904045808942
          4.9664522326    0.55698777214497
          2.0116242047     0.5111546829846
 s    1 1.00
         0.35661077013                   1
 s    1 1.00
         0.13507221477                   1
 p    5 1.00
          261.98233439  -0.009183054659266
          61.306894736   -0.06590222652599
          19.103729887   -0.24587784518735
          6.6567720378    -0.4823147107602
          2.3959635161   -0.38956314351423
 p    1 1.00
         0.61776161679                   1
 p    1 1.00
         0.16993376871                   1
 d    1 1.00
                  0.55                   1

7 0
 s    5 1.00
           9184.930301  -0.0054729466134731
          1381.5105503  -0.040954402155135
           313.8714758   -0.18475828956188
          88.053870623   -0.47567280643953
          27.039914905   -0.43495153584169
 s    3 1.00
          45.648731303  -0.091904045808942
          4.9664522326    0.55698777214497
          2.0116242047     0.5111546829846
 s    1 1.00
         0.35661077013                   1
 s    1 1.00
         0.13507221477                   1
 p    5 1.00
          261.98233439  -0.009183054659266
          61.306894736   -0.06590222652599
          19.103729887   -0.24587784518735
          6.6567720378    -0.4823147107602
          2.3959635161   -0.38956314351423
 p    1 1.00
         0.61776161679                   1
 p    1 1.00
         0.16993376871                   1
 d    1 1.00
                  0.55                   1

8 0
 s    5 1.00
           9184.930301  -0.0054729466134731
          1381.5105503  -0.040954402155135
           313.8714758   -0.18475828956188
          88.053870623   -0.47567280643953
          27.039914905   -0.43495153584169
 s    3 1.00
          45.648731303  -0.091904045808942
          4.9664522326    0.55698777214497
          2.0116242047     0.5111546829846
 s    1 1.00
         0.35661077013                   1
 s    1 1.00
         0.13507221477                   1
 p    5 1.00
          261.98233439  -0.009183054659266
          61.306894736   -0.06590222652599
          19.103729887   -0.24587784518735
          6.6567720378    -0.4823147107602
          2.3959635161   -0.38956314351423
 p    1 1.00
         0.61776161679                   1
 p    1 1.00
         0.16993376871                   1
 d    1 1.00
                  0.55                   1

9 0
 s    5 1.00
          1238.4016938  0.0055173650481097
          186.29004992   0.041088828555946
          42.251176346     0.1822538212649
          11.676557932    0.46828459437429
          3.5930506482    0.44575817336002
 s    1 1.00
         0.40245147363                   1
 s    1 1.00
         0.13090182668                   1
 p    3 1.00
          9.4680970621   0.056888332011037
          2.0103545142    0.31294059336471
         0.54771004707    0.76065016509135
 p    1 1.00
         0.15268613795                   1
 d    1 1.00
                   0.8                   1

10 0
 s    3 1.00
             13.010701   0.033485484812989
             1.9622572    0.23472187088125
            0.44453796    0.81377028525955
 s    1 1.00
            0.12194962                   1
 p    1 1.00
                   0.8                   1

11 0
 s    3 1.00
             13.010701   0.033485484812989
             1.9622572    0.23472187088125
            0.44453796    0.81377028525955
 s    1 1.00
            0.12194962                   1
 p    1 1.00
                   0.8                   1

12 0
 s    3 1.00
             13.010701   0.033485484812989
             1.9622572    0.23472187088125
            0.44453796    0.81377028525955
 s    1 1.00
            0.12194962                   1
 p    1 1.00
                   0.8                   1

13 0
 s    5 1.00
          1238.4016938  0.0055173650481097
          186.29004992   0.041088828555946
          42.251176346     0.1822538212649
          11.676557932    0.46828459437429
          3.5930506482    0.44575817336002
 s    1 1.00
         0.40245147363                   1
 s    1 1.00
         0.13090182668                   1
 p    3 1.00
          9.4680970621   0.056888332011037
          2.0103545142    0.31294059336471
         0.54771004707    0.76065016509135
 p    1 1.00
         0.15268613795                   1
 d    1 1.00
                   0.8                   1

14 0
 s    3 1.00
             13.010701   0.033485484812989
             1.9622572    0.23472187088125
            0.44453796    0.81377028525955
 s    1 1.00
            0.12194962                   1
 p    1 1.00
                   0.8                   1

15 0
 s    3 1.00
             13.010701   0.033485484812989
             1.9622572    0.23472187088125
            0.44453796    0.81377028525955
 s    1 1.00
            0.12194962                   1
 p    1 1.00
                   0.8                   1

16 0
 s    3 1.00
             13.010701   0.033485484812989
             1.9622572    0.23472187088125
            0.44453796    0.81377028525955
 s    1 1.00
            0.12194962                   1
 p    1 1.00
                   0.8                   1

17 0
 s    5 1.00
          1238.4016938  0.0055173650481097
          186.29004992   0.041088828555946
          42.251176346     0.1822538212649
          11.676557932    0.46828459437429
          3.5930506482    0.44575817336002
 s    1 1.00
         0.40245147363                   1
 s    1 1.00
         0.13090182668                   1
 p    3 1.00
          9.4680970621   0.056888332011037
          2.0103545142    0.31294059336471
         0.54771004707    0.76065016509135
 p    1 1.00
         0.15268613795                   1
 d    1 1.00
                   0.8                   1

18 0
 s    3 1.00
             13.010701   0.033485484812989
             1.9622572    0.23472187088125
            0.44453796    0.81377028525955
 s    1 1.00
            0.12194962                   1
 p    1 1.00
                   0.8                   1

19 0
 s    3 1.00
             13.010701   0.033485484812989
             1.9622572    0.23472187088125
            0.44453796    0.81377028525955
 s    1 1.00
            0.12194962                   1
 p    1 1.00
                   0.8                   1

20 0
 s    3 1.00
             13.010701   0.033485484812989
             1.9622572    0.23472187088125
            0.44453796    0.81377028525955
 s    1 1.00
            0.12194962                   1
 p    1 1.00
                   0.8                   1

21 0
 s    5 1.00
          1238.4016938  0.0055173650481097
          186.29004992   0.041088828555946
          42.251176346     0.1822538212649
          11.676557932    0.46828459437429
          3.5930506482    0.44575817336002
 s    1 1.00
         0.40245147363                   1
 s    1 1.00
         0.13090182668                   1
 p    3 1.00
          9.4680970621   0.056888332011037
          2.0103545142    0.31294059336471
         0.54771004707    0.76065016509135
 p    1 1.00
         0.15268613795                   1
 d    1 1.00
                   0.8                   1

22 0
 s    3 1.00
             13.010701   0.033485484812989
             1.9622572    0.23472187088125
            0.44453796    0.81377028525955
 s    1 1.00
            0.12194962                   1
 p    1 1.00
                   0.8                   1

23 0
 s    3 1.00
             13.010701   0.033485484812989
             1.9622572    0.23472187088125
            0.44453796    0.81377028525955
 s    1 1.00
            0.12194962                   1
 p    1 1.00
                   0.8                   1

24 0
 s    3 1.00
             13.010701   0.033485484812989
             1.9622572    0.23472187088125
            0.44453796    0.81377028525955
 s    1 1.00
            0.12194962                   1
 p    1 1.00
                   0.8                   1

[5d]
[7f]
[9g]

[MO]
 Sym= A
 Ene=               0
 Spin= Alpha
 Occup=    1.00000
   1    -0.00013679121515379
   2    0.00038318536053888
   3    -0.0019567664945607
   4    0.0051910084157306
   5    -0.0042576710572023
   6     0.001509920970125
   7    0.0028326605601777
   8    -0.0028266753570225
   9    -0.0047740697528545
  10    -0.0092691628694133
  11    0.0093212886745106
  12    0.0096227268482458
  13     0.016821391788892
  14    -0.016038741666396
  15      0.65833032330029
  16     0.048053689973334
  17      0.31582373042886
  18      0.16829737483546
  19      0.47188757607442
  20      0.17754631024344
  21     0.012628135726852
  22     0.085047717124056
  23     0.045693636080383
  24      0.12688032265279
  25    -0.00019391980583807
  26    -9.4156569372794e-05
  27    0.00015564146664973
  28    4.5501622853813e-05
  29    0.00032946733907182
  30    3.1472808000602e-06
  31    1.1667864007123e-06
  32    0.00074235915318228
  33    0.0046618775568487
  34    -0.0053434069656196
  35    -0.0052053926518666
  36    -0.00040447127985861
  37    -0.0025915897833529
  38    0.0031658295776648
  39    -0.0035623217345759
  40    -0.016439975131208
  41     0.011885886867353
  42    -0.0079477690786331
  43     -0.03459964988369
  44     0.026599064378118
  45    -0.0011428397621943
  46    -0.00064786804976326
  47    -0.0010337124515877
  48    -0.0013404826098912
  49    0.00028724894042482
  50    -0.0006532771553578
  51    -0.0041032385314027
  52    0.0046179039873053
  53    0.0045826488574352
  54    -6.0103358727204e-05
  55    -0.0030362192871168
  56    0.0039974404590254
  57    -0.004312373126022
  58     -0.01005168106603
  59     0.021167100797691
  60    -0.0084334574486868
  61    -0.022610316731492
  62     0.045364810599952
  63    -0.0021134861041997
  64    0.0015670972534276
  65    -0.00026164091293425
  66    -0.00065116202471499
  67    -0.00087151938938385
  68    -4.0127977724532e-05
  69    0.00011058990179539
  70    -0.00055629445360844
  71    0.00074332909660948
  72    0.0022718959912153
  73    0.00091937784833266
  74    -0.00044291056091276
  75    0.00099218413897907
  76    -0.0028084647288115
  77    0.0013625610738938
  78    -0.0030496112247187
  79     0.002932505913956
  80    -0.0032849401515558
  81    0.0063287915690075
  82    0.00080538215246846
  83    -0.00057711980147678
  84    0.00029125548685631
  85    0.00042899580144218
  86    -0.00039391004648549
  87    0.00070699871164126
  88    0.00044759384560266
  89    0.00058941478105992
  90    0.00025774352408542
  91    0.00075186237542643
  92    -0.00012991199243502
  93    3.7714349064602e-06
  94    -8.8664733765162e-05
  95    7.4910143025976e-05
  96    0.00017181417485601
  97    5.5741023661246e-05
  98    -0.00012251443427351
  99    0.0021529046294723
 100     0.013536556441067
 101     -0.01577419296838
 102    -0.020693568921375
 103    -0.0021432153169749
 104    -0.002752321178618
 105      0.01002116289776
 106    -0.0038821142067965
 107    -0.0046582156189428
 108     0.016356210330563
 109    -0.0031542390799082
 110    -0.0098812788413947
 111        0.041409153903
 112    0.0016817906025791
 113    -0.00089567282944885
 114    -0.0011965695560526
 115    0.00042746844170997
 116    0.00039186972529925
 117    -0.0023991592093662
 118    -0.015183463285791
 119     0.018049709160998
 120     0.023615389809903
 121    0.00027895264865433
 122    -0.0092495615276863
 123    0.0054570924460877
 124    0.00018010501117411
 125    -0.015625928831647
 126    0.0090784829677018
 127    0.0063338190774145
 128    -0.036458912407363
 129     0.023960813307461
 130    0.00063611779783175
 131    -0.0004746966948504
 132     0.001785338795615
 133    0.0018078388885931
 134    -0.00044218711202938
 135    -0.00017391227168728
 136    -0.0011859097799069
 137    0.0021441620749109
 138    0.0017796405956831
 139    -6.6596905186886e-05
 140    0.00041873653235383
 141    0.00056330070861227
 142    -0.00020043425294773
 143    0.00091737676278935
 144    0.0010547225915618
 145    0.00067189836139729
 146    0.00063020193837013
 147    0.0025571949656167
 148    -2.0850274928307e-05
 149    0.00014991940314819
 150    -0.00033553406108086
 151    6.6388615806142e-05
 152    2.8825526123348e-05
 153    0.00019868456769821
 154    0.0013428897521509
 155    -0.0021189968735385
 156    -0.0030848008391018
 157    0.00015651478369233
 158    -0.00086215407865645
 159    -6.0527041537043e-05
 160    0.00021619896476062
 161    -0.0016596076840485
 162    -0.00026158066686052
 163    0.0015288801760865
 164    -0.0030091839928197
 165    0.00096385144783206
 166    -0.00020946429307615
 167    -7.2864813472419e-05
 168    0.00024656423850316
 169    -0.00022762967719795
 170    3.4350638671505e-05
 171    0.00039885979118814
 172    7.2532478737345e-05
 173    -0.0058628779321559
 174    0.00071111640235003
 175    0.00057509887037091
 176    0.0008245645574084
 177    0.0020650183066174
 178    0.0023695676364434
 179    0.0048195516716471
 180    -0.00067461929319702
 181    -0.00037171794780218
 182    0.00042433309020365
 183    -0.0002826837365067
 184    0.00026476498868947
 185    0.0014381619937049
 186    0.0024520202827116
 187    2.1486880828405e-05
 188    -1.1853021955096e-06
 189    1.8871008870385e-05
 190    0.0017154621638532
 191    0.0027602457839073
 192    0.00010169907785843
 193    0.00012697030695265
 194    8.4465738953351e-05
 195    -0.0039650820151127
 196    -0.0050855565216424
 197    -5.8388304256613e-05
 198    -0.00014813639720316
 199    -0.00016281355736247
 200    1.2811911238012e-06
 201    -0.00061707309301104
 202    0.0015731883977115
 203    5.143975409583e-05
 204    0.00015775976007776
 205    8.5190378327416e-05
 206    0.0055381626040778
 207    -0.0018579380587647
 208    3.3082625544848e-05
 209    9.677019311915e-05
 210    0.00063108424843966
 211    -0.00040604602203803
 212    -0.00019250679310746
 213    -0.00019909326325312
 214    -0.00038278511731193
 215    0.0031496771251145
 216    -5.8019339496175e-05
 217    0.00015320261967437
 218    5.5453894027046e-05
 219    -0.0022627560089115
 220    -0.0020965989108147
 221    0.00018205531334154
 222    -1.0932160697216e-05
 223    1.6724011934274e-06
 224     0.003462797177944
 225    0.0057833196314684
 226    -0.00027509408114694
 227    9.9860417634759e-05
 228    6.0117169963677e-05
 229    0.0002500959297963
 230    -0.00028055277831696
 231    -0.0043649721179357
 232    0.0012721969574783
 233    -0.0005598417455916
 234    -0.00051144420292847
 235    0.0038211979634629
 236    -0.00047061384138037
 237    -0.0018439066577024
 238    1.4801204333553e-05
 239    8.2753878789881e-05
 240    -3.7504783865371e-05
 241    1.5323947106708e-05
 242    7.0745418721288e-06
 243    8.4629034426049e-05
 244    -0.0005762684370011
 245    -6.8034157446903e-05
 246    -1.2444689351169e-05
 247    -3.9711203857595e-05
 248    0.00028454293948805
 249    0.00053467684951704
 250    -2.900549337109e-06
 251    2.5361559685219e-05
 252    1.8211649657691e-05
 253    -0.00060887310831969
 254    0.0068018115583494
 255    7.5656888503971e-05
 256    0.00016424901718262
 257    -3.680867460107e-05
 258    -0.00023030426686201
 259    0.00014220299507511
 260     0.005308484734482
 261    0.00073747490605038
 262    0.00095272325464813
 263    0.00049718770624899
 264    0.0032072561245126
 265    0.0028416679618411
 266    0.00032088458123502
 267    -1.8302995496851e-05
 268    -2.3529049297249e-05
 269    5.1711004452808e-05
 270    -4.3539493018925e-05
 271    5.4519887636665e-05
 272    -0.0003530868294908
 273    -0.0007729673694135
 274    -8.4349618836351e-06
 275    -3.36402760584e-05
 276    -3.0436250621792e-05
 277    0.00062233862014401
 278    -0.0076066145214917
 279    0.00014251321378015
 280    3.7440373036971e-05
 281    -0.00010933113047227
 282    -9.9755460826007e-05
 283    -0.00016728024800147
 284    -7.1449944611725e-05
 285    7.9411372880531e-06
 286    -1.2558970232058e-05
 Sym= A
 Ene=               1
 Spin= Alpha
 Occup=    1.00000
   1    0.00045144481234451
   2    -0.0012887376638863
   3    0.0060978478552585
   4    -0.0091597274911701
   5    -0.010057265081695
   6    -0.0052584457639231
   7    0.0025511987363346
   8    0.0023657380235943
   9      0.01688623606191
  10    -0.0084027818335887
  11    -0.0076425174003221
  12     -0.03286513886326
  13     0.019009799463939
  14     0.018045805081821
  15     -0.26750728649495
  16      -0.3071355043841
  17      0.32826279462272
  18       0.7108858256065
  19    -0.068442310698226
  20    -0.071214233133246
  21    -0.082957461339146
  22     0.088099967632443
  23      0.19177756214885
  24    -0.018198574233205
  25    -7.4667632961414e-05
  26    -3.0660616440864e-05
  27    -1.7131828840969e-05
  28    0.00033180621444262
  29    -0.00014418674855155
  30    4.2041552747962e-05
  31    0.00040509005805634
  32    -3.4669270338468e-05
  33    -0.00020036183287918
  34    4.8593818389869e-05
  35    -0.0012672230915551
  36     0.004348997912474
  37    -0.0015456586949444
  38    -0.0003044340573561
  39     0.016890046469816
  40    -0.0059948718157989
  41    8.9543006934558e-05
  42     0.035332782421591
  43    -0.012248351105434
  44    0.0011844758493265
  45    -0.00081668704694647
  46    -0.0017194732009333
  47    0.0015694259868418
  48    -0.0013756541403586
  49    -0.001940158689735
  50    0.0021812110548428
  51     0.013714172458257
  52    -0.015713045754685
  53    -0.015668333802295
  54    0.00086245292236279
  55    -0.0015738821036297
  56    -0.0010123217893516
  57     0.019164561341159
  58    -0.015922285653151
  59    -0.014351775502821
  60      0.04104040030885
  61    -0.030481844196157
  62    -0.029025201123813
  63    0.00018514064064998
  64    -0.00055803993753012
  65    0.0018670255710892
  66    -0.001092920048067
  67    -0.00097780686181266
  68    -0.00063244770617987
  69    0.0017492169071505
  70    -0.0087428653521249
  71     0.016506784012521
  72    0.0082881052534164
  73     -0.00115734051924
  74    -0.00033049279998739
  75    0.00035775867169524
  76    0.0035297960452009
  77    0.0010172355580684
  78    -0.0010862862667687
  79    -0.0030666885422724
  80    0.0009311998587436
  81    0.0026270558623662
  82    0.00090291130328207
  83    0.00094556118012076
  84    0.0013594069731586
  85    -0.0023986037027204
  86    -0.00039291448467019
  87    -0.00052077839027974
  88    -0.001189775119953
  89    0.00013071905808121
  90     0.001434078174086
  91    0.00012601285578957
  92    1.2465886459733e-05
  93    -3.7667395507133e-05
  94    -6.7048541151959e-05
  95    0.00023041410786648
  96    -6.6414145448941e-05
  97    7.196386574363e-06
  98    0.00017472897130378
  99    -0.0011420440307651
 100     -0.00726677296809
 101    0.0096755770563176
 102     0.010272427544633
 103    0.0022192700716168
 104     -0.00338618546188
 105    -0.0032392147116185
 106    0.0038042257860914
 107    -0.0058677913510202
 108    -0.0055767916510981
 109    0.0057161184900383
 110    -0.010528626201503
 111    -0.010849264052712
 112    0.00042052239734156
 113    0.0020472895311611
 114    -0.0017601482520452
 115    -0.00059231794531352
 116    0.00086478446514812
 117    -0.001615589987978
 118    -0.010201110963804
 119     0.011778718849297
 120     0.016724759138759
 121    0.0086594294187325
 122    -0.0052400116266144
 123    -0.0030683902695281
 124     0.014762409427522
 125    -0.0087715935758994
 126    -0.0055278106192776
 127     0.031898131856094
 128    -0.020628214353586
 129    -0.0066882173062157
 130    0.0011158052089936
 131    -0.00029649773989212
 132    -0.0016239297999983
 133    0.00011698939238886
 134    0.0030543577497048
 135    0.00016991453866826
 136     0.001097239332741
 137    -0.00070730232936553
 138    -0.0053688077498954
 139    7.7294636983548e-05
 140    6.9909046077235e-05
 141    -0.0014724625166053
 142    0.00010013745141762
 143    0.00011571270468779
 144    -0.0023974544153554
 145    0.00015851898106274
 146    0.00024944503209795
 147    -0.0062072942459154
 148    8.4820231204239e-05
 149    -0.00018335041180037
 150    0.00018533842205885
 151    4.0356628649727e-06
 152    1.7910892814066e-05
 153    0.00023937372077171
 154    0.0015926336802786
 155    -0.0020774700379669
 156    -0.0049281079160764
 157    0.0004478678667111
 158    -0.0015137283506196
 159    0.00049560504610275
 160    0.00070687612019412
 161    -0.0027010132231778
 162    0.0007892401372465
 163     0.002415487872131
 164    -0.0054319577957771
 165    0.0021746039516042
 166    -0.00022410837514978
 167    -0.00012126569038886
 168    0.00011732647681677
 169    -0.00016881533515566
 170    -3.9620557913315e-05
 171    9.2534139252573e-05
 172    0.00064764658880029
 173    -0.0045124710101221
 174    -0.00026630573741875
 175    -0.00010284972728422
 176    0.0010395489660414
 177    0.0015198146279943
 178    0.0026714890039346
 179    0.0019303042057277
 180    0.00018635451582264
 181    -0.00030458031658311
 182    0.00047450986154601
 183    -0.00057512889280977
 184    -0.00035921793461943
 185    -0.0026602915272085
 186    -0.0018909537169195
 187    3.1188575647962e-07
 188    -0.00018747643933284
 189    -0.00018269239556978
 190    0.0029898270358759
 191    0.0030623962372949
 192    8.8384856695616e-05
 193    0.00010736343209941
 194    0.00023975649099664
 195    -3.5895665100428e-05
 196    9.797907596502e-05
 197    -0.00010514915699033
 198    7.758980469451e-06
 199    -4.6093224933862e-05
 200    0.0025184440315839
 201    -0.005926300462639
 202    -0.0013876395606665
 203    -0.0061777168782277
 204    0.0011931957398478
 205    0.0039679985781627
 206    -0.0061736807668884
 207    0.00062702496797933
 208    -0.001212308796793
 209    0.00070292021452409
 210    -0.00090409070696159
 211    0.00048539090648135
 212    -0.00019797846262782
 213    -0.00020972052612999
 214    -0.0025426424095165
 215    -0.0016135303363182
 216    -6.3603757043989e-05
 217    -0.00012336281288875
 218    0.00013600042610551
 219    0.0056125837194869
 220    0.0057311940471721
 221    -0.00023612734516642
 222    1.3062479949605e-05
 223    1.2060956759972e-05
 224    -0.0032329712904725
 225    -0.0041893651345333
 226    0.00032840152569626
 227    -3.0795685411731e-05
 228    -0.0005020131846042
 229    0.00019104983532146
 230    -0.00057208218440318
 231    0.0013779603475585