 &FCI NORB=  24,NELEC=24,MS2=0,
  ORBSYM=1,1,1,1,1,1,1,1,1,1,1,1,1,1,1,1,1,1,1,1,1,1,1,1,
  ISYM=1,
 &END
 0.5237421653076557    1    1    1    1
 0.01490892806155888    2    1    1    1
 0.006638464878186276    2    1    2    1
 0.3039347752989102    2    2    1    1
 0.00901565338314967    2    2    2    1
 0.5561927276941042    2    2    2    2
 0.01454452382513577    3    1    1    1
 -0.0005507285735154012    3    1    2    1
 0.001953740866057423    3    1    2    2
 0.006836080211050806    3    1    3    1
 -0.005423629698403742    3    2    1    1
 -0.0005812938149905041    3    2    2    1
 0.0007011975253117801    3    2    2    2
 -0.0006107492557006162    3    2    3    1
 0.0003725294872294719    3    2    3    2
 0.2993354541191783    3    3    1    1
 0.001538578974619286    3    3    2    1
 0.1971440169651929    3    3    2    2
 0.01439042638926293    3    3    3    1
 -0.001894671864888787    3    3    3    2
 0.5228916167505304    3    3    3    3
 -0.001618179602498431    4    1    1    1
 -0.0006922726858164774    4    1    2    1
 -0.007485754748791451    4    1    2    2
 0.0004303624904657264    4    1    3    1
 3.035152962766678e-05    4    1    3    2
 0.00139916460542351    4    1    3    3
 0.0004668305733535651    4    1    4    1
 -0.0007476951122675457    4    2    1    1
 -0.001380195470629581    4    2    2    1
 0.009143177105423039    4    2    2    2
 0.0005836489934115675    4    2    3    1
 0.0005605115021643355    4    2    3    2
 0.002421603239235125    4    2    3    3
 -0.0006991721218078765    4    2    4    1
 0.00664300978751798    4    2    4    2
 0.001426507074865587    4    3    1    1
 0.0002882040415315352    4    3    2    1
 0.001580323215735274    4    3    2    2
 9.82230828699612e-05    4    3    3    1
 -3.547470462500703e-05    4    3    3    2
 -0.002087815407138026    4    3    3    3
 -6.580916829304232e-05    4    3    4    1
 7.018143677165058e-05    4    3    4    2
 0.0001301732381200105    4    3    4    3
 0.1938360021997835    4    4    1    1
 -0.0008033669182324445    4    4    2    1
 0.3038829556912442    4    4    2    2
 0.00349393611779821    4    4    3    1
 0.002120426919298527    4    4    3    2
 0.1701713839950767    4    4    3    3
 -0.00164521531000764    4    4    4    1
 0.01489215341847115    4    4    4    2
 -0.002148540398970947    4    4    4    3
 0.5235249955300602    4    4    4    4
 -0.001664324557604293    5    1    1    1
 0.0003672899391553053    5    1    2    1
 0.001179285263641391    5    1    2    2
 -0.0006655349679729318    5    1    3    1
 7.948200895199292e-05    5    1    3    2
 -0.006136907593006638    5    1    3    3
 -9.898212767992457e-05    5    1    4    1
 -2.998299026816778e-05    5    1    4    2
 5.127302017517666e-05    5    1    4    3
 0.0006576950456807864    5    1    4    4
 0.0003693103112870945    5    1    5    1
 0.0006833618181262656    5    2    1    1
 7.06805490248199e-05    5    2    2    1
 -0.003944093495554394    5    2    2    2
 0.000268282629758755    5    2    3    1
 -6.643255958921366e-05    5    2    3    2
 0.001067423205536479    5    2    3    3
 8.57534515348313e-05    5    2    4    1
 6.860240313070341e-05    5    2    4    2
 -6.376164816087113e-06    5    2    4    3
 0.0006804081724637825    5    2    4    4
 -5.351538141816129e-05    5    2    5    1
 0.0001594074025715325    5    2    5    2
 0.001380078711043758    5    3    1    1
 0.0005824141440127233    5    3    2    1
 0.003365718149638216    5    3    2    2
 -0.0006750904545049112    5    3    3    1
 0.0004355414763639617    5    3    3    2
 0.01427544592181988    5    3    3    3
 -4.460259345085354e-05    5    3    4    1
 0.0004339031283396686    5    3    4    2
 5.651239031648481e-05    5    3    4    3
 0.003365892849054318    5    3    4    4
 -0.0006570907397670467    5    3    5    1
 5.58517193965407e-05    5    3    5    2
 0.006715280211262002    5    3    5    3
 0.0006547003959682411    5    4    1    1
 -3.038442441767887e-05    5    4    2    1
 0.001173747798948113    5    4    2    2
 -3.473398904006844e-05    5    4    3    1
 2.707965872949758e-05    5    4    3    2
 0.001207930720676752    5    4    3    3
 -9.874535040830183e-05    5    4    4    1
 0.0003667286532070012    5    4    4    2
 -4.336360662994271e-05    5    4    4    3
 -0.001672972243947603    5    4    4    4
 -8.781494548754582e-05    5    4    5    1
 -5.357248552049976e-05    5    4    5    2
 0.0004035085455504394    5    4    5    3
 0.0003698023631596196    5    4    5    4
 0.1934394225274717    5    5    1    1
 0.002823093417509468    5    5    2    1
 0.1716193887977719    5    5    2    2
 0.001447003091061725    5    5    3    1
 0.001378140335677711    5    5    3    2
 0.2986133882227247    5    5    3    3
 0.0008117200204829578    5    5    4    1
 0.002836361828882219    5    5    4    2
 0.001174008919251715    5    5    4    3
 0.1934029091695361    5    5    4    4
 -0.001277437655731005    5    5    5    1
 -0.002329690861376881    5    5    5    2
 0.01414337563066977    5    5    5    3
 -0.001283521403634162    5    5    5    4
 0.5232336631187228    5    5    5    5
 -0.002159301076213373    6    1    1    1
 6.711381851464049e-05    6    1    2    1
 0.001570139702627882    6    1    2    2
 6.738243517477244e-05    6    1    3    1
 6.116735210624483e-05    6    1    3    2
 0.001192869315428846    6    1    3    3
 -6.563310207961364e-05    6    1    4    1
 0.0002882483425343876    6    1    4    2
 6.34830914415695e-07    6    1    4    3
 0.001420428101608735    6    1    4    4
 -4.330149700233033e-05    6    1    5    1
 -6.379541224507621e-06    6    1    5    2
 0.0003000464176716785    6    1    5    3
 5.112035241598237e-05    6    1    5    4
 0.001173834311640259    6    1    5    5
 0.0001298908866752646    6    1    6    1
 0.002097637504213227    6    2    1    1
 0.0005581756885698818    6    2    2    1
 0.0006493212801959863    6    2    2    2
 8.886884404406296e-06    6    2    3    1
 -9.633610778811775e-05    6    2    3    2
 0.001140036901413748    6    2    3    3
 3.190498199913077e-05    6    2    4    1
 -0.0005795537017666964    6    2    4    2
 6.082875072566214e-05    6    2    4    3
 -0.005420430333587016    6    2    4    4
 2.707978921662412e-05    6    2    5    1
 -6.558690051094041e-05    6    2    5    2
 2.138993483173599e-07    6    2    5    3
 7.920464839521973e-05    6    2    5    4
 0.00138104749422733    6    2    5    5
 -3.571012949195496e-05    6    2    6    1
 0.00037117830805403    6    2    6    2
 0.001317348901575222    6    3    1    1
 -9.358693872662699e-06    6    3    2    1
 0.0008447394903847074    6    3    2    2
 0.0004219766104557206    6    3    3    1
 -7.93623660686073e-05    6    3    3    2
 -0.001488909768825109    6    3    3    3
 2.772394995964688e-05    6    3    4    1
 -9.369427994608908e-06    6    3    4    2
 -3.709933062476266e-05    6    3    4    3
 0.001317266641984994    6    3    4    4
 6.653172981816706e-05    6    3    5    1
 4.729801695726544e-05    6    3    5    2
 -0.0005950162614553087    6    3    5    3
 6.656113648648657e-05    6    3    5    4
 -0.005772045028260428    6    3    5    5
 -3.708405308567818e-05    6    3    6    1
 -7.946972760198483e-05    6    3    6    2
 0.0003473839531930597    6    3    6    3
 0.003497805076996437    6    4    1    1
 0.0005823719282784971    6    4    2    1
 0.001964470007851528    6    4    2    2
 0.0004784286578892114    6    4    3    1
 9.156726920772421e-06    6    4    3    2
 0.00347300118389613    6    4    3    3
 0.0004282101616631878    6    4    4    1
 -0.0005473728144252714    6    4    4    2
 6.759345763009577e-05    6    4    4    3
 0.01456751055754261    6    4    4    4
 -3.455777011591132e-05    6    4    5    1
 0.0002683498646116698    6    4    5    2
 0.0006474059133760215    6    4    5    3
 -0.0006667520803569319    6    4    5    4
 0.001438633655419194    6    4    5    5
 9.824797348754024e-05    6    4    6    1
 -0.0006104292162413485    6    4    6    2
 0.0004221640935362762    6    4    6    3
 0.006836529739188296    6    4    6    4
 0.003368095055254358    6    5    1    1
 0.0004331572610544581    6    5    2    1
 0.003365396864651065    6    5    2    2
 0.0006475171970330598    6    5    3    1
 3.046723013764113e-07    6    5    3    2
 0.001737211921170228    6    5    3    3
 -4.477781098824065e-05    6    5    4    1
 0.0005838354065424898    6    5    4    2
 0.0003003914752114918    6    5    4    3
 0.001373224972872735    6    5    4    4
 0.0004037930050308167    6    5    5    1
 5.600266015776421e-05    6    5    5    2
 -0.0005897859569380641    6    5    5    3
 -0.0006579821475534569    6    5    5    4
 0.01415005389878583    6    5    5    5
 5.621241939575132e-05    6    5    6    1
 0.0004363506858812746    6    5    6    2
 -0.0005946837476930718    6    5    6    3
 -0.0006776527855978339    6    5    6    4
 0.006715329978554453    6    5    6    5
 0.170207453105526    6    6    1    1
 0.002397247568155956    6    6    2    1
 0.1971505481246529    6    6    2    2
 0.003475996896762681    6    6    3    1
 0.001146914276683319    6    6    3    2
 0.1947558427855226    6    6    3    3
 0.001391504975108635    6    6    4    1
 0.001544911514595412    6    6    4    2
 0.001195198999622706    6    6    4    3
 0.2992852269130052    6    6    4    4
 0.001209620945408655    6    6    5    1
 0.001068187882831698    6    6    5    2
 0.001737227480867555    6    6    5    3
 -0.006145646613744881    6    6    5    4
 0.2986170473918508    6    6    5    5
 -0.002082785411092326    6    6    6    1
 -0.001879529958244821    6    6    6    2
 -0.001488862060858039    6    6    6    3
 0.01437891826791948    6    6    6    4
 0.01427309252182941    6    6    6    5
 0.522881803644679    6    6    6    6
 0.002800336442864126    7    1    1    1
 6.132519514677505e-05    7    1    2    1
 -0.0002858012785498739    7    1    2    2
 0.0002975470061266414    7    1    3    1
 -3.013867619897988e-05    7    1    3    2
 0.001339814219078193    7    1    3    3
 3.066655035113026e-05    7    1    4    1
 1.282171282759804e-05    7    1    4    2
 -3.519511117878793e-06    7    1    4    3
 -5.993811597218945e-05    7    1    4    4
 -5.634575623460059e-05    7    1    5    1
 1.473413274403984e-05    7    1    5    2
 1.302752991932226e-05    7    1    5    3
 -4.800391952083535e-07    7    1    5    4
 0.0005146756833347081    7    1    5    5
 -2.69170233980235e-05    7    1    6    1
 6.894470350750211e-06    7    1    6    2
 2.901513250128956e-06    7    1    6    3
 2.673649710425624e-05    7    1    6    4
 1.284533833216235e-05    7    1    6    5
 0.0002013403253468561    7    1    6    6
 8.812710305853167e-05    7    1    7    1
 -7.369081232605407e-05    7    2    1    1
 -0.0001374094763866633    7    2    2    1
 0.002074034562823673    7    2    2    2
 6.796134372549736e-06    7    2    3    1
 4.789982136785745e-05    7    2    3    2
 -8.108365672359637e-05    7    2    3    3
 -2.748952099121766e-05    7    2    4    1
 8.639357226313138e-05    7    2    4    2
 -3.716986204617723e-06    7    2    4    3
 0.0006967806826582627    7    2    4    4
 9.270939374779918e-07    7    2    5    1
 -3.922034892087089e-05    7    2    5    2
 5.604130179973132e-06    7    2    5    3
 7.26544387869927e-06    7    2    5    4
 2.063369357052844e-05    7    2    5    5
 9.839140794952523e-06    7    2    6    1
 -1.592294162180439e-05    7    2    6    2
 8.572227663054542e-08    7    2    6    3
 -2.778989410196287e-05    7    2    6    4
 -1.142886538547255e-06    7    2    6    5
 0.0001751745994907444    7    2    6    6
 1.594939463523499e-06    7    2    7    1
 4.982090536577562e-05    7    2    7    2
 0.0006933128300052075    7    3    1    1
 2.558966788100866e-05    7    3    2    1
 0.0006006148629088576    7    3    2    2
 2.902320010542674e-05    7    3    3    1
 -2.308749989215176e-05    7    3    3    2
 -0.000730307889236701    7    3    3    3
 -1.56203166731539e-05    7    3    4    1
 -2.311558915703926e-05    7    3    4    2
 1.341041734133434e-05    7    3    4    3
 0.000150479763257308    7    3    4    4
 1.706681040083706e-05    7    3    5    1
 -1.79188856108577e-06    7    3    5    2
 -8.001633852659901e-05    7    3    5    3
 -1.440109319368138e-06    7    3    5    4
 -0.0004860460702646541    7    3    5    5
 -9.283702479291622e-06    7    3    6    1
 3.685359242905558e-06    7    3    6    2
 1.749218615658633e-05    7    3    6    3
 -4.969595175267542e-06    7    3    6    4
 1.012240640482272e-06    7    3    6    5
 -0.0001110764867437223    7    3    6    6
 -1.572155470104966e-05    7    3    7    1
 -3.052175870436209e-06    7    3    7    2
 1.551007182035089e-05    7    3    7    3
 0.0001665937144609593    7    4    1    1
 3.282506696381449e-06    7    4    2    1
 8.232295862157513e-05    7    4    2    2
 -2.610947077703804e-05    7    4    3    1
 -1.214953235848755e-05    7    4    3    2
 -4.41450353322621e-05    7    4    3    3
 -1.135981961016688e-05    7    4    4    1
 -6.183868259026742e-05    7    4    4    2
 5.317873717126061e-06    7    4    4    3
 -0.0007398504275714709    7    4    4    4
 1.691679466827864e-06    7    4    5    1
 -4.14698174250503e-06    7    4    5    2
 -1.37057210150547e-05    7    4    5    3
 1.034863777588998e-05    7    4    5    4
 -0.0002053446227806531    7    4    5    5
 -2.678701674967707e-06    7    4    6    1
 7.570623161968185e-06    7    4    6    2
 -3.812902724511343e-07    7    4    6    3
 -8.324795571026929e-05    7    4    6    4
 -1.876553495064491e-05    7    4    6    5
 -0.0004383259377572641    7    4    6    6
 -8.810426012373172e-06    7    4    7    1
 -9.632501337328168e-06    7    4    7    2
 6.272288264428721e-06    7    4    7    3
 1.034994380060857e-05    7    4    7    4
 -0.0003074026006501964    7    5    1    1
 -1.008026042908919e-05    7    5    2    1
 -0.0002490189709164052    7    5    2    2
 -9.521706709511274e-06    7    5    3    1
 5.306010700139544e-06    7    5    3    2
 -0.0001582716802053071    7    5    3    3
 3.022081899061189e-06    7    5    4    1
 1.703722366469459e-06    7    5    4    2
 1.454556664384468e-08    7    5    4    3
 -6.308149213204035e-05    7    5    4    4
 5.660507034508667e-06    7    5    5    1
 -6.634802731772618e-06    7    5    5    2
 -3.022858782693185e-05    7    5    5    3
 -5.985499565148165e-06    7    5    5    4
 0.0004443112116243945    7    5    5    5
 1.953166806723912e-07    7    5    6    1
 -5.849817066736237e-07    7    5    6    2
 -8.070053230641839e-06    7    5    6    3
 -1.212026724979761e-05    7    5    6    4
 2.548963740413081e-05    7    5    6    5
 0.0001223437225099646    7    5    6    6
 4.482476619718237e-06    7    5    7    1
 3.62504357897167e-07    7    5    7    2
 -3.808424108497605e-06    7    5    7    3
 -1.787121009017075e-06    7    5    7    4
 2.742421911080216e-06    7    5    7    5
 -0.0001880555394348293    7    6    1    1
 -6.651026404278946e-06    7    6    2    1
 -0.0002593637203378303    7    6    2    2
 -5.583912246579675e-06    7    6    3    1
 5.642171567087059e-07    7    6    3    2
 -4.980113372525868e-05    7    6    3    3
 6.411499083787691e-06    7    6    4    1
 -1.742689904748187e-05    7    6    4    2
 -1.192445427894248e-07    7    6    4    3
 -0.0001853022268111809    7    6    4    4
 -5.641399176121901e-08    7    6    5    1
 2.694807705536269e-07    7    6    5    2
 -6.544323337952116e-06    7    6    5    3
 -7.514414848370637e-06    7    6    5    4
 7.723996954066657e-05    7    6    5    5
 -5.334604470730298e-06    7    6    6    1
 1.850710707772115e-06    7    6    6    2
 -5.31124564988182e-06    7    6    6    3
 -2.164401092072265e-05    7    6    6    4
 7.738972144017561e-06    7    6    6    5
 0.0002351470801299904    7    6    6    6
 1.808732276145261e-06    7    6    7    1
 1.618506876484087e-06    7    6    7    2
 -2.145111513606816e-06    7    6    7    3
 -1.776844560233512e-06    7    6    7    4
 8.773396788314823e-07    7    6    7    5
 1.530162882859589e-06    7    6    7    6
 0.1199872088315168    7    7    1    1
 0.0003376519783401506    7    7    2    1
 0.1346982941219705    7    7    2    2
 -0.0009526045460910878    7    7    3    1
 -0.0004296906514450254    7    7    3    2
 0.0905007261037495    7    7    3    3
 -0.001042808940685625    7    7    4    1
 -0.000780507219874273    7    7    4    2
 0.0002593554243258203    7    7    4    3
 0.1039972621673738    7    7    4    4
 0.0004272235843539939    7    7    5    1
 -0.0002750768592821966    7    7    5    2
 0.0001409774376722094    7    7    5    3
 0.000336328615784707    7    7    5    4
 0.07869537677494483    7    7    5    5
 2.935462500961946e-05    7    7    6    1
 0.0001450867935242541    7    7    6    2
 0.000299633934750505    7    7    6    3
 -0.0003032119866396777    7    7    6    4
 0.0003874252726693835    7    7    6    5
 0.08297953834734687    7    7    6    6
 0.001026043218953348    7    7    7    1
 0.0006734915324251637    7    7    7    2
 -0.0009342334849906713    7    7    7    3
 -0.0005631880138564841    7    7    7    4
 0.0003919116444422474    7    7    7    5
 0.0001904187192280226    7    7    7    6
 0.5556498498940989    7    7    7    7
 -0.0011980193903152    8    1    1    1
 -5.500675431851084e-06    8    1    2    1
 5.850511957433505e-05    8    1    2    2
 -0.0001066449571854919    8    1    3    1
 1.376781924530686e-05    8    1    3    2
 -0.0005437624209357853    8    1    3    3
 -1.031058489381747e-05    8    1    4    1
 -6.591941614407487e-06    8    1    4    2
 1.916033704159134e-06    8    1    4    3
 -3.722089796342013e-05    8    1    4    4
 2.175748447847389e-05    8    1    5    1
 -5.653950498144305e-06    8    1    5    2
 1.536287520641113e-06    8    1    5    3
 -1.479619569193387e-08    8    1    5    4
 -0.0001994323106309016    8    1    5    5
 1.25124844813046e-05    8    1    6    1
 5.194276218721004e-08    8    1    6    2
 -1.707904477999287e-06    8    1    6    3
 -5.630519528489675e-06    8    1    6    4
 -2.033043577092605e-06    8    1    6    5
 -9.659538321183459e-05    8    1    6    6
 -2.900982505016337e-05    8    1    7    1
 -9.253578506738205e-07    8    1    7    2
 2.093516106475701e-06    8    1    7    3
 1.59243257497548e-06    8    1    7    4
 -3.003469900777729e-07    8    1    7    5
 -8.428019514498097e-08    8    1    7    6
 0.0004074741745839917    8    1    7    7
 1.676666275448629e-05    8    1    8    1
 8.289511996354651e-05    8    2    1    1
 5.68161985341982e-05    8    2    2    1
 -0.0006910063621076361    8    2    2    2
 1.933466085574583e-05    8    2    3    1
 -1.054035900509461e-05    8    2    3    2
 0.0001383994490576485    8    2    3    3
 7.867603254105323e-06    8    2    4    1
 4.432635859111913e-05    8    2    4    2
 1.254366232450014e-06    8    2    4    3
 5.030471310630535e-05    8    2    4    4
 -2.461860947975819e-06    8    2    5    1
 1.993780901702823e-05    8    2    5    2
 6.244493473069212e-06    8    2    5    3
 -2.927212566610055e-06    8    2    5    4
 0.0001279217419257103    8    2    5    5
 6.450252933806129e-07    8    2    6    1
 -7.306697721578413e-06    8    2    6    2
 6.585188634499671e-07    8    2    6    3
 2.128406369213036e-05    8    2    6    4
 6.427219729945888e-06    8    2    6    5
 0.0001299288064586094    8    2    6    6
 3.158024269298365e-06    8    2    7    1
 -1.115493861122587e-05    8    2    7    2
 -1.199487536737168e-06    8    2    7    3
 -1.233018626840049e-06    8    2    7    4
 1.907503734763421e-07    8    2    7    5
 5.300266217352042e-07    8    2    7    6
 -0.0004100401519877393    8    2    7    7
 -9.380955850751016e-06    8    2    8    1
 2.347993313790081e-05    8    2    8    2
 -0.0002102114198601735    8    3    1    1
 -4.466661118902979e-06    8    3    2    1
 -0.0001687071448042413    8    3    2    2
 -1.065290270399356e-05    8    3    3    1
 9.002541724346048e-06    8    3    3    2
 0.0002931018892425475    8    3    3    3
 4.726641664101338e-06    8    3    4    1
 1.216625241293325e-05    8    3    4    2
 -4.592856317006063e-06    8    3    4    3
 1.252498736815472e-06    8    3    4    4
 -4.926632875617206e-06    8    3    5    1
 8.466634108750972e-07    8    3    5    2
 3.175975960637491e-05    8    3    5    3
 7.22528992582013e-07    8    3    5    4
 0.0002001582118146459    8    3    5    5
 3.789544232664505e-06    8    3    6    1
 -1.546209827211083e-06    8    3    6    2
 -5.839047066100812e-06    8    3    6    3
 4.652039777935618e-06    8    3    6    4
 6.679140655936821e-07    8    3    6    5
 6.980692878615662e-05    8    3    6    6
 2.951189697438949e-06    8    3    7    1
 4.685431468829674e-07    8    3    7    2
 -3.62270580610531e-06    8    3    7    3
 -1.245148543158095e-06    8    3    7    4
 5.757604941623354e-07    8    3    7    5
 3.186996615090836e-07    8    3    7    6
 -0.0001429957107163432    8    3    7    7
 -3.353611148483177e-06    8    3    8    1
 4.339132463997997e-06    8    3    8    2
 2.581223494412211e-06    8    3    8    3
 -3.18942004860834e-05    8    4    1    1
 -6.550188717301946e-06    8    4    2    1
 7.101476479637741e-05    8    4    2    2
 -2.647057267239508e-06    8    4    3    1
 1.167629281354474e-06    8    4    3    2
 -7.342379520913311e-05    8    4    3    3
 -8.900712407656948e-06    8    4    4    1
 4.674625659847386e-06    8    4    4    2
 1.015650250868063e-05    8    4    4    3
 -0.0009447517207345857    8    4    4    4
 -9.551698086670227e-08    8    4    5    1
 -4.850159645660334e-06    8    4    5    2
 -3.064407807874737e-07    8    4    5    3
 1.832434372197245e-05    8    4    5    4
 -0.0001540782630114089    8    4    5    5
 2.000151210633379e-06    8    4    6    1
 1.130749921942502e-05    8    4    6    2
 -1.457332988360998e-06    8    4    6    3
 -8.4781675030219e-05    8    4    6    4
 3.691364933202359e-06    8    4    6    5
 -0.0004357263860297538    8    4    6    6
 -2.196722137582996e-06    8    4    7    1
 1.209705976628744e-06    8    4    7    2
 1.114169186362995e-06    8    4    7    3
 4.520180692582422e-06    8    4    7    4
 -3.809134914513705e-07    8    4    7    5
 -5.070086851397425e-07    8    4    7    6
 -8.241097480003308e-05    8    4    7    7
 3.608094203815915e-06    8    4    8    1
 -8.805860706166874e-06    8    4    8    2
 -1.713605094599765e-06    8    4    8    3
 1.215516241920385e-05    8    4    8    4
 0.000137571601837868    8    5    1    1
 2.644115860899939e-06    8    5    2    1
 0.0001802319594672401    8    5    2    2
 8.281947097191409e-06    8    5    3    1
 -2.128481399931259e-06    8    5    3    2
 -1.990940084691863e-06    8    5    3    3
 -2.36439203586218e-06    8    5    4    1
 1.998380220201798e-06    8    5    4    2
 -1.381663200366644e-07    8    5    4    3
 0.0001267461578915364    8    5    4    4
 -1.105647405440433e-07    8    5    5    1
 5.473280378181826e-06    8    5    5    2
 1.405636729543733e-06    8    5    5    3
 3.611881042925959e-07    8    5    5    4
 -0.0003894157681323673    8    5    5    5
 -1.622379558397565e-07    8    5    6    1
 -1.893666821664102e-06    8    5    6    2
 6.530147553385065e-06    8    5    6    3
 8.46256541227555e-06    8    5    6    4
 -1.320626092037707e-06    8    5    6    5
 -1.403095385126916e-05    8    5    6    6
 -1.553831480932865e-06    8    5    7    1
 3.81385411004043e-07    8    5    7    2
 1.48523322730827e-06    8    5    7    3
 5.232102557815293e-07    8    5    7    4
 -1.2603740439275e-06    8    5    7    5
 -4.209152616094384e-07    8    5    7    6
 -1.580916670117875e-05    8    5    7    7
 1.857404097295685e-06    8    5    8    1
 -3.143240089526477e-06    8    5    8    2
 -1.161472793291251e-06    8    5    8    3
 1.695216972433186e-06    8    5    8    4
 1.51411672618304e-06    8    5    8    5
 1.761966681589501e-05    8    6    1    1
 1.156620612088235e-05    8    6    2    1
 -0.0001298062351836465    8    6    2    2
 4.784776078538519e-06    8    6    3    1
 -1.430760734400027e-06    8    6    3    2
 6.691575528153842e-05    8    6    3    3
 3.643867067839348e-06    8    6    4    1
 -2.085641566126354e-06    8    6    4    2
 3.318243870758313e-06    8    6    4    3
 -0.0001690055041722601    8    6    4    4
 6.11810361096919e-07    8    6    5    1
 7.358163604963277e-07    8    6    5    2
 1.055233569358909e-06    8    6    5    3
 -3.663740227436808e-06    8    6    5    4
 0.0001720653875969346    8    6    5    5
 -3.652380829691719e-06    8    6    6    1
 7.890010344875871e-06    8    6    6    2
 -4.781352539488893e-06    8    6    6    3
 -7.865904759752136e-06    8    6    6    4
 2.747238094644598e-05    8    6    6    5
 0.0002414714627614415    8    6    6    6
 2.142587521097269e-06    8    6    7    1
 -9.527848426662108e-07    8    6    7    2
 -1.140721023995331e-06    8    6    7    3
 -7.872897514345174e-07    8    6    7    4
 4.560291098599456e-07    8    6    7    5
 7.282531530862294e-07    8    6    7    6
 0.000107456682470304    8    6    7    7
 -1.758603911065128e-06    8    6    8    1
 4.005581433141317e-06    8    6    8    2
 8.593509045945553e-07    8    6    8    3
 -2.843138764999147e-06    8    6    8    4
 -1.012336421496713e-06    8    6    8    5
 2.031797693765849e-06    8    6    8    6
 -0.000211496951281688    8    7    1    1
 -3.968930576557345e-05    8    7    2    1
 0.0005057100830847312    8    7    2    2
 1.235165734868393e-05    8    7    3    1
 1.567590604394173e-05    8    7    3    2
 -6.169357755544887e-05    8    7    3    3
 -7.449974490883964e-06    8    7    4    1
 1.529559711044231e-05    8    7    4    2
 -2.313518489762412e-06    8    7    4    3
 0.0004687702095132291    8    7    4    4
 -7.090015824383551e-07    8    7    5    1
 -5.922975203950271e-06    8    7    5    2
 8.158978162480365e-06    8    7    5    3
 4.197111994110583e-06    8    7    5    4
 7.444910455921093e-05    8    7    5    5
 8.020068031049992e-06    8    7    6    1
 -8.871986886725998e-06    8    7    6    2
 -4.750197618542265e-07    8    7    6    3
 -1.539554555847712e-05    8    7    6    4
 -1.153030749511459e-06    8    7    6    5
 0.0002128689023425981    8    7    6    6
 0.0001525801903436993    8    7    7    1
 -0.0001522715856712193    8    7    7    2
 -7.273009190877333e-05    8    7    7    3
 1.562220948994559e-05    8    7    7    4
 2.603225146002486e-05    8    7    7    5
 4.380659880726954e-06    8    7    7    6
 0.009256325162400141    8    7    7    7
 4.553118630789114e-05    8    7    8    1
 -6.060654428243529e-06    8    7    8    2
 -1.997985842941429e-05    8    7    8    3
 -3.508088113732801e-05    8    7    8    4
 -3.949059656450438e-06    8    7    8    5
 2.403924630731687e-05    8    7    8    6
 0.006651514893075124    8    7    8    7
 0.09887829513287838    8    8    1    1
 -0.0001953990462936485    8    8    2    1
 0.1174711642102677    8    8    2    2
 -0.0004719676333481338    8    8    3    1
 -0.000109537046437102    8    8    3    2
 0.07828226753649729    8    8    3    3
 -0.0008288252750035746    8    8    4    1
 -0.0001967470335486934    8    8    4    2
 0.0001155686258785022    8    8    4    3
 0.09886178082821308    8    8    4    4
 0.0003083647456150485    8    8    5    1
 -0.0002232093173923051    8    8    5    2
 0.0002266092664120698    8    8    5    3
 0.0003078640715977694    8    8    5    4
 0.07155976733840921    8    8    5    5
 0.0001142853606334486    8    8    6    1
 -0.0001095011510528963    8    8    6    2
 0.0002531994482351661    8    8    6    3
 -0.0004709439153302467    8    8    6    4
 0.0002268110380071602    8    8    6    5
 0.07827724269283888    8    8    6    6
 0.0008328417106067874    8    8    7    1
 -0.0004276689251066462    8    8    7    2
 -0.0005131533549946367    8    8    7    3
 -6.45962943283515e-05    8    8    7    4
 0.0002029369000890831    8    8    7    5
 6.141992460166392e-05    8    8    7    6
 0.3039278197968946    8    8    7    7
 -0.0008091834172524648    8    8    8    1
 0.001367125824269444    8    8    8    2
 0.0004509159800753355    8    8    8    3
 -0.0007179532376969494    8    8    8    4
 -0.0003648465075783939    8    8    8    5
 0.0003854218527213728    8    8    8    6
 0.01495268960084463    8    8    8    7
 0.523627319298303    8    8    8    8
 -0.003644717640119048    9    1    1    1
 0.0001146891809536227    9    1    2    1
 0.002203230062651035    9    1    2    2
 -0.0004660154816294705    9    1    3    1
 5.701870978414502e-05    9    1    3    2
 -0.002030310208637102    9    1    3    3
 -0.0001083724870282127    9    1    4    1
 1.508088852819549e-05    9    1    4    2
 1.588317824318915e-05    9    1    4    3
 0.0009920849279015042    9    1    4    4
 0.0001076159045148887    9    1    5    1
 -3.602313767114716e-05    9    1    5    2
 2.568483763100496e-05    9    1    5    3
 6.55603921382796e-06    9    1    5    4
 -0.0005325985441947908    9    1    5    5
 5.512260466528144e-05    9    1    6    1
 -1.114494127392685e-05    9    1    6    2
 -5.067161078093006e-06    9    1    6    3
 -3.805400797077777e-05    9    1    6    4
 3.35527994011562e-06    9    1    6    5
 0.0001716374196025746    9    1    6    6
 -0.0001057725046790481    9    1    7    1
 -1.014896697479255e-05    9    1    7    2
 1.277863388560827e-05    9    1    7    3
 1.028530214845104e-05    9    1    7    4
 -2.47592219953506e-06    9    1    7    5
 -1.627777169234028e-06    9    1    7    6
 -0.002025192932850031    9    1    7    7