[Molden Format]
made by pyscf v[2.2.1]
[Atoms] (AU)
Fe   1   26     3.17068844873907     0.00098706064664     0.12237737881307
O   2   8     0.00000000000000     0.00000000000000    -0.89004350580623
Fe   3   26    -3.17068844873907    -0.00098706064664     0.12237737881307
Cl   4   17     3.53383895113107    -2.07485195383062     3.76228752659000
Cl   5   17     5.54152580550813    -1.85590924879884    -2.78672786652360
Cl   6   17     4.48169216485503     3.92976278472880    -0.95330240907949
Cl   7   17    -3.53383895113107     2.07485195383062     3.76228752659000
Cl   8   17    -5.54152580550813     1.85590924879884    -2.78672786652360
Cl   9   17    -4.48169216485503    -3.92976278472880    -0.95330240907949
[GTO]
1 0
 s    6 1.00
              61132.62  0.0017661109761772
              9179.342   0.013530379817491
              2090.857   0.066731279099873
              589.2479    0.23148229687757
              188.7543    0.47970579352933
              64.44629    0.35019759527624
 s    6 1.00
               1259.98   0.002438014026839
              299.8761   0.032240480354921
              96.84917    0.12657240139338
               36.3102  -0.031399020345658
              14.72996   -0.62075930683366
              6.066075   -0.45029140495706
 s    6 1.00
              50.43485  -0.0038732559842369
              16.83929   0.071965979707118
              7.192086    0.25565909895954
               3.05342   -0.28828369882676
              1.273643   -0.73428219701167
              0.504091   -0.20493529916597
 s    3 1.00
              1.950316   0.056948690305124
              0.736721    0.28829150154463
              0.114177    -1.1381590060981
 s    1 1.00
              0.041148                   1
 p    6 1.00
               1259.98  0.0040280186654072
              299.8761   0.031446467387857
              96.84917    0.13683168863389
               36.3102    0.34872357103281
              14.72996    0.46179306164054
              6.066075    0.20430578302906
 p    6 1.00
              50.43485  -0.0070171278804837
              16.83929  -0.028776599509875
              7.192086   0.061813828947182
               3.05342     0.3954945932639
              1.273643    0.49890589150259
              0.504091    0.17912509694913
 p    3 1.00
              1.950316   -0.45937961634956
              0.736721    0.28521391015091
              0.114177    0.90764853230368
 p    1 1.00
              0.041148                   1
 d    3 1.00
              23.14994   0.088769354792419
              6.122368    0.38963192103518
              1.846601    0.70148163787111
 d    1 1.00
              0.504361                   1
 f    1 1.00
                   0.8                   1

2 0
 s    6 1.00
             5484.6717   0.001831099805527
             825.23495   0.013950098518422
             188.04696    0.06844509273075
               52.9645    0.23271427528445
              16.89757    0.47019295006289
             5.7996353    0.35852086192309
 s    3 1.00
             15.539616   -0.11077750382508
             3.5999336   -0.14802630511126
             1.0137618     1.1307670390447
 s    1 1.00
             0.2700058                   1
 p    3 1.00
             15.539616   0.070874299543311
             3.5999336    0.33975279781076
             1.0137618    0.72715859531445
 p    1 1.00
             0.2700058                   1
 d    1 1.00
                   0.8                   1

3 0
 s    6 1.00
              61132.62  0.0017661109761772
              9179.342   0.013530379817491
              2090.857   0.066731279099873
              589.2479    0.23148229687757
              188.7543    0.47970579352933
              64.44629    0.35019759527624
 s    6 1.00
               1259.98   0.002438014026839
              299.8761   0.032240480354921
              96.84917    0.12657240139338
               36.3102  -0.031399020345658
              14.72996   -0.62075930683366
              6.066075   -0.45029140495706
 s    6 1.00
              50.43485  -0.0038732559842369
              16.83929   0.071965979707118
              7.192086    0.25565909895954
               3.05342   -0.28828369882676
              1.273643   -0.73428219701167
              0.504091   -0.20493529916597
 s    3 1.00
              1.950316   0.056948690305124
              0.736721    0.28829150154463
              0.114177    -1.1381590060981
 s    1 1.00
              0.041148                   1
 p    6 1.00
               1259.98  0.0040280186654072
              299.8761   0.031446467387857
              96.84917    0.13683168863389
               36.3102    0.34872357103281
              14.72996    0.46179306164054
              6.066075    0.20430578302906
 p    6 1.00
              50.43485  -0.0070171278804837
              16.83929  -0.028776599509875
              7.192086   0.061813828947182
               3.05342     0.3954945932639
              1.273643    0.49890589150259
              0.504091    0.17912509694913
 p    3 1.00
              1.950316   -0.45937961634956
              0.736721    0.28521391015091
              0.114177    0.90764853230368
 p    1 1.00
              0.041148                   1
 d    3 1.00
              23.14994   0.088769354792419
              6.122368    0.38963192103518
              1.846601    0.70148163787111
 d    1 1.00
              0.504361                   1
 f    1 1.00
                   0.8                   1

4 0
 s    6 1.00
               25180.1  0.0018330003117875
               3780.35   0.014034002387139
               860.474   0.069097011753181
               242.145    0.23745204038983
               77.3349    0.48303408216255
                26.247    0.33985605780843
 s    6 1.00
               491.765  -0.0022974019889149
               116.984  -0.030714026589855
               37.4153   -0.11252809741822
               13.7834   0.045016038971443
               5.45215    0.58935351021719
               2.22588    0.46520640274012
 s    3 1.00
               3.18649    -0.2518312880459
               1.14427   0.061589315011948
              0.420377     1.0601854225489
 s    1 1.00
              0.142657                   1
 p    6 1.00
               491.765  0.0039894005477754
               116.984   0.030318004162896
               37.4153    0.12988001783353
               13.7834     0.3279510450302
               5.45215    0.45352706227276
               2.22588    0.25215403462269
 p    3 1.00
               3.18649   -0.01429901271425
               1.14427    0.32357228771069
              0.420377    0.74350766110453
 p    1 1.00
              0.142657                   1
 d    1 1.00
                  0.75                   1

5 0
 s    6 1.00
               25180.1  0.0018330003117875
               3780.35   0.014034002387139
               860.474   0.069097011753181
               242.145    0.23745204038983
               77.3349    0.48303408216255
                26.247    0.33985605780843
 s    6 1.00
               491.765  -0.0022974019889149
               116.984  -0.030714026589855
               37.4153   -0.11252809741822
               13.7834   0.045016038971443
               5.45215    0.58935351021719
               2.22588    0.46520640274012
 s    3 1.00
               3.18649    -0.2518312880459
               1.14427   0.061589315011948
              0.420377     1.0601854225489
 s    1 1.00
              0.142657                   1
 p    6 1.00
               491.765  0.0039894005477754
               116.984   0.030318004162896
               37.4153    0.12988001783353
               13.7834     0.3279510450302
               5.45215    0.45352706227276
               2.22588    0.25215403462269
 p    3 1.00
               3.18649   -0.01429901271425
               1.14427    0.32357228771069
              0.420377    0.74350766110453
 p    1 1.00
              0.142657                   1
 d    1 1.00
                  0.75                   1

6 0
 s    6 1.00
               25180.1  0.0018330003117875
               3780.35   0.014034002387139
               860.474   0.069097011753181
               242.145    0.23745204038983
               77.3349    0.48303408216255
                26.247    0.33985605780843
 s    6 1.00
               491.765  -0.0022974019889149
               116.984  -0.030714026589855
               37.4153   -0.11252809741822
               13.7834   0.045016038971443
               5.45215    0.58935351021719
               2.22588    0.46520640274012
 s    3 1.00
               3.18649    -0.2518312880459
               1.14427   0.061589315011948
              0.420377     1.0601854225489
 s    1 1.00
              0.142657                   1
 p    6 1.00
               491.765  0.0039894005477754
               116.984   0.030318004162896
               37.4153    0.12988001783353
               13.7834     0.3279510450302
               5.45215    0.45352706227276
               2.22588    0.25215403462269
 p    3 1.00
               3.18649   -0.01429901271425
               1.14427    0.32357228771069
              0.420377    0.74350766110453
 p    1 1.00
              0.142657                   1
 d    1 1.00
                  0.75                   1

7 0
 s    6 1.00
               25180.1  0.0018330003117875
               3780.35   0.014034002387139
               860.474   0.069097011753181
               242.145    0.23745204038983
               77.3349    0.48303408216255
                26.247    0.33985605780843
 s    6 1.00
               491.765  -0.0022974019889149
               116.984  -0.030714026589855
               37.4153   -0.11252809741822
               13.7834   0.045016038971443
               5.45215    0.58935351021719
               2.22588    0.46520640274012
 s    3 1.00
               3.18649    -0.2518312880459
               1.14427   0.061589315011948
              0.420377     1.0601854225489
 s    1 1.00
              0.142657                   1
 p    6 1.00
               491.765  0.0039894005477754
               116.984   0.030318004162896
               37.4153    0.12988001783353
               13.7834     0.3279510450302
               5.45215    0.45352706227276
               2.22588    0.25215403462269
 p    3 1.00
               3.18649   -0.01429901271425
               1.14427    0.32357228771069
              0.420377    0.74350766110453
 p    1 1.00
              0.142657                   1
 d    1 1.00
                  0.75                   1

8 0
 s    6 1.00
               25180.1  0.0018330003117875
               3780.35   0.014034002387139
               860.474   0.069097011753181
               242.145    0.23745204038983
               77.3349    0.48303408216255
                26.247    0.33985605780843
 s    6 1.00
               491.765  -0.0022974019889149
               116.984  -0.030714026589855
               37.4153   -0.11252809741822
               13.7834   0.045016038971443
               5.45215    0.58935351021719
               2.22588    0.46520640274012
 s    3 1.00
               3.18649    -0.2518312880459
               1.14427   0.061589315011948
              0.420377     1.0601854225489
 s    1 1.00
              0.142657                   1
 p    6 1.00
               491.765  0.0039894005477754
               116.984   0.030318004162896
               37.4153    0.12988001783353
               13.7834     0.3279510450302
               5.45215    0.45352706227276
               2.22588    0.25215403462269
 p    3 1.00
               3.18649   -0.01429901271425
               1.14427    0.32357228771069
              0.420377    0.74350766110453
 p    1 1.00
              0.142657                   1
 d    1 1.00
                  0.75                   1

9 0
 s    6 1.00
               25180.1  0.0018330003117875
               3780.35   0.014034002387139
               860.474   0.069097011753181
               242.145    0.23745204038983
               77.3349    0.48303408216255
                26.247    0.33985605780843
 s    6 1.00
               491.765  -0.0022974019889149
               116.984  -0.030714026589855
               37.4153   -0.11252809741822
               13.7834   0.045016038971443
               5.45215    0.58935351021719
               2.22588    0.46520640274012
 s    3 1.00
               3.18649    -0.2518312880459
               1.14427   0.061589315011948
              0.420377     1.0601854225489
 s    1 1.00
              0.142657                   1
 p    6 1.00
               491.765  0.0039894005477754
               116.984   0.030318004162896
               37.4153    0.12988001783353
               13.7834     0.3279510450302
               5.45215    0.45352706227276
               2.22588    0.25215403462269
 p    3 1.00
               3.18649   -0.01429901271425
               1.14427    0.32357228771069
              0.420377    0.74350766110453
 p    1 1.00
              0.142657                   1
 d    1 1.00
                  0.75                   1

[5d]
[7f]
[9g]

[MO]
 Sym= A
 Ene=               0
 Spin= Alpha
 Occup=    1.00000
   1    0.0012673125250278
   2    0.0055260359657068
   3    -0.013650330068906
   4      0.03216530560715
   5    -0.0030494669453972
   6    0.0023244577344875
   7    0.0018083318807253
   8    -0.006501412387616
   9    -0.0049786519864004
  10    -0.0033491525481517
  11     0.011300647684803
  12    0.0074004517475093
  13    0.0074361819244389
  14    -0.027569586753568
  15    0.00039178070248138
  16    -0.0055579199308222
  17    0.0095650133817907
  18       0.2227795744743
  19     -0.34061763274199
  20     -0.49558612251576
  21      0.39904318035656
  22      0.18038158541188
  23      0.10868526026944
  24     -0.16719949582715
  25     -0.24307427748603
  26      0.19651528745343
  27     0.088946354793928
  28    0.0018042385623863
  29    -0.0017365451837391
  30    -0.0018801737625954
  31    0.00020217749436442
  32    -0.00096235196964083
  33    0.0019201146223913
  34    0.00038639655700307
  35    0.00014991958825129
  36    0.00028283717802105
  37    0.0015565470272139
  38    -0.00051913865421254
  39    0.00065768281816416
  40     -0.03761046684098
  41    -0.0010585275658049
  42    2.6101321340474e-05
  43     -0.03212129411664
  44    -5.6848120399227e-05
  45    0.00015274694124577
  46    -0.0010064388272947
  47    0.00013215978960359
  48    0.00027315834532286
  49    0.0001837397444154
  50    0.00090704495201544
  51    -0.0017233489100161
  52    0.0061041044617187
  53    0.0096253570953814
  54    -0.0012692924551141
  55    1.701041146959e-05
  56    -0.00068457164895577
  57    0.0029196781125234
  58    -0.00026184895899552
  59    0.0012544825354159
  60    -0.0036357087991652
  61    -0.0005578212801309
  62    -0.0027719511256441
  63    0.0043837738874822
  64    0.0015406874383151
  65    -0.0058575552837583
  66    0.00050740703389987
  67    -0.0010424060094255
  68    4.6615196330369e-05
  69    -0.00025233918943264
  70    7.2114976617479e-05
  71    0.0014323716706106
  72    -0.0018198182450418
  73    0.00035224233143951
  74    -0.0011681415411955
  75    0.00023052561437665
  76    0.00020041618844367
  77    0.00079524653287261
  78    9.569555125372e-05
  79    -0.00033521511666475
  80    -3.4556592376643e-07
  81    -0.00046901001787552
  82    5.3952029829222e-05
  83     -0.00182919003765
  84     0.009308662614348
  85    -0.014119046090864
  86    -0.0089543617358653
  87    -0.014873669726758
  88     0.011419523891816
  89    -0.016514224421672
  90      0.03842765082598
  91    -0.029001310064188
  92     0.041735376856614
  93     0.023672512457027
  94    -0.019380730842362
  95     0.030125045950736
  96    -0.00031454556946346
  97    0.0029915360848606
  98    -0.0012149154640353
  99    0.00074959293838924
 100    -0.0018921195256774
 101    0.00043524378741879
 102    -0.0023633924712957
 103    0.0028319775082263
 104    0.0056179201002169
 105     0.014507807877533
 106     0.023815938773676
 107    -0.011062088754276
 108    -0.037375991014195
 109    -0.061821999825949
 110     0.028554409775901
 111     -0.02463046191153
 112    -0.037879536251413
 113     0.019625697062061
 114    -0.0014731952424901
 115    0.0023808231186649
 116    0.0035841885846104
 117    -0.0041456876613119
 118    -0.0026227230620577
 119    0.0004870506540344
 120    -0.002684973758966
 121    0.0030111654765744
 122    0.0086253491567201
 123     0.012549918422117
 124    -0.0042165508342262
 125     -0.02500892873786
 126    -0.032411616495507
 127     0.011027647360971
 128     0.064760634385883
 129    -0.020833594757745
 130    0.0046068913621771
 131     0.041164984369647
 132    -0.0023177864116518
 133    0.0023164930451375
 134    0.0036738145221079
 135    -0.0033513259827733
 136    -0.0013879662581432
 137    0.00019926528673141
 138    -0.00073793245039627
 139    0.0026315323108543
 140    0.00028826006775433
 141    -0.0015658092819782
 142    0.0005536998936429
 143    0.00059978736291954
 144    0.0042562133860744
 145    -0.0015293571902149
 146    -0.0017983115077469
 147    0.0016650508016988
 148    -0.0013617737796515
 149    -0.00062403597250154
 150    9.2213323734594e-05
 151    0.00017807876912207
 152    -4.1583657921887e-05
 153    -0.00011276033571265
 154    0.00016287962954129
 155    -4.5963020423333e-05
 156    0.00029745019961217
 157    -0.00016070547338535
 158    -0.003604523599277
 159    0.00074072671347216
 160    2.0028124406628e-05
 161    -0.00063567361696935
 162    -0.0020014746489629
 163    7.089680735675e-05
 164     0.001475849565779
 165    -0.0015433688866194
 166    -8.6605183947486e-05
 167    0.0015960357427668
 168    4.5409379332206e-06
 169    1.2440618683305e-05
 170    -6.5008952955302e-05
 171    7.1188403990198e-05
 172    -6.3027321719178e-05
 173    3.5870259887683e-05
 174    1.6714981610007e-05
 175    0.0010235861360637
 176    -0.0027783425765173
 177    -0.00014268163104579
 178    -7.0580600089861e-05
 179    -0.00068512778599027
 180    0.00056140504110211
 181    0.00025581217550459
 182    0.0017761869029204
 183    -0.00091372063421867
 184    -0.00074741070365486
 185    0.0016731908665381
 186    -1.4446733505844e-05
 187    -9.6193736798667e-05
 188    -3.7974577530087e-05
 189    -1.5441006789111e-05
 190    -2.6845071264336e-05
 Sym= A
 Ene=               1
 Spin= Alpha
 Occup=    1.00000
   1    0.00070206437530821
   2    0.0031914042602502
   3    -0.0072704404857205
   4     0.020219244128298
   5    -6.0774513833911e-05
   6     0.001418816106378
   7    -0.0094364155320246
   8    -0.0042023143093362
   9    -0.0030088930065041
  10     0.016178997076798
  11    0.0069269460114584
  12    0.0045239490975099
  13    -0.040174891170526
  14     -0.01825783101789
  15    -0.0033884951293533
  16      0.01240222561122
  17    0.0023009316677883
  18     -0.53730831971443
  19     -0.08873206042706
  20     -0.42137680638612
  21     -0.15515549784437
  22     -0.32232492172619
  23     -0.26253844983819
  24    -0.042942904667929
  25     -0.20588215075645
  26    -0.075376916833714
  27      -0.1576982343773
  28    -0.001461787535299
  29    -0.0026531407508218
  30    -0.0011909150189738
  31    -0.0015148817710003
  32    -0.0026495523897307
  33    0.00021456162391797
  34    -0.002565584032284
  35    -0.00086415253271974
  36    0.0023956107252718
  37    0.0053018367217838
  38    0.0051101023758203
  39    -0.058557856910665
  40    -0.040608038138744
  41    0.0037439893721884
  42    -0.049282954385786
  43    -0.034767106271264
  44    -0.0017673826067226
  45    0.00099944899790578
  46    -0.0019546792759321
  47    -0.00062911458719796
  48     0.001189323746199
  49    0.00031892702009241
  50    0.0014826906269656
  51    -0.0032503958013442
  52    0.0098701083421839
  53    0.0035205876472712
  54    -0.0018076965795278
  55    -0.0016617753698812
  56    -0.00059051475110072
  57    0.0038334963579582
  58    0.0027755771901104
  59    0.00064147480851207
  60    -0.0061831101124478
  61    -0.0075612000879038
  62    -0.0035604349764312
  63    0.0016800425634821
  64    -0.0081467759781612
  65    -0.0045215658678044
  66    0.0007477463731513
  67    -0.00054479268520994
  68    0.00034943703243861
  69    -0.00057258408740297
  70    -0.0012980549535166
  71    0.0019930851620889
  72    -0.001378011934456
  73    0.0011839661011238
  74    -0.0013924818163058
  75    -0.0040212092876746
  76    8.9345382331555e-05
  77    0.0008660235711926
  78    0.00032493969253186
  79    -0.00033688551870533
  80    0.00074828373681142
  81    -0.00061326345832221
  82    -0.0014493151153278
  83    8.1855501951347e-05
  84    -0.00055400097754409
  85    0.0001469768125455
  86    0.0044524586308301
  87    0.0035136701435366
  88    -0.026118645706575
  89    -0.013685359733248
  90    -0.009262237441109
  91     0.067974140161148
  92     0.035515401624849
  93    -0.0050868034126335
  94     0.044258854775239
  95     0.022040755034574
  96    0.0051790670088286
  97    -0.00058199178481367
  98    0.0028555263775883
  99    0.0027331028130773
 100    0.00065497028951473
 101    0.0011490953364513
 102    -0.0059447156606819
 103    0.0085891459835384
 104    0.0079354490473638
 105     0.020864839498356
 106    -0.015470660959315
 107    0.0078019333707423
 108    -0.053606487026778
 109     0.039886425731583
 110    -0.020789505744909
 111    -0.034460851776685
 112     0.028190288435173
 113    -0.010173659847365
 114     0.004787621832556
 115    -0.00031510147846426
 116    0.00034649309019877
 117    -0.0013483280555322
 118    0.0023646143350638
 119    -0.0017467683616036
 120    0.0087652378372462
 121    -0.013798600342327
 122    -0.0079581674183075
 123    -0.016125523064844
 124    -0.017954769354957
 125    -0.0041205407585495
 126     0.041219063329021
 127     0.045259446764119
 128      0.01116378835951
 129     0.026372282878779
 130     0.032829393532153
 131    0.0076137386552769
 132    -0.001657025055861
 133    -0.00043458377294595
 134    0.0012773417688735
 135    0.00079516681286299
 136    0.0025231064181575
 137    0.00025356342055605
 138    -0.001194336086003
 139    0.0024425589072394
 140    0.0057093665649804
 141    -0.0022130934715023
 142    1.8536547020832e-05
 143    0.0018057638228506
 144    0.0060722680938632
 145    -0.00021811326258321
 146    -0.0050530391849748
 147    0.0024913979835181
 148    -0.00016889244295818
 149    -0.0043799725238392
 150    8.6081992771929e-06
 151    0.00035397162163539
 152    3.0986731477207e-05
 153    -0.0001622934175049
 154    3.7414708214012e-05
 155    6.1376029557441e-05
 156    -0.00025650739141634
 157    0.00070649871797209
 158    0.00014151110678315
 159    -0.00053528202066573
 160    -0.00040102607571906
 161    -0.00077480748066613
 162    0.0015662009240692
 163    0.00091039253178175
 164    0.0018807320235561
 165     0.000640616143284
 166    0.0024355606390471
 167    0.0028730528636661
 168    8.3066662256952e-05
 169    -3.9173859439649e-05
 170    -5.5241640917472e-05
 171    -5.3142274762851e-05
 172    -6.8071261046737e-05
 173    -0.00021195414855219
 174    0.00097150259898325
 175    -0.0021364305878015
 176    -0.0054248413912483
 177    0.0024570107618352
 178    0.00061560940251144
 179    -0.00083604504700048
 180    -0.0068236077601777
 181    -0.0019884099680382
 182    0.0022097348560177
 183    -0.0023470058548062
 184    -0.00094277933290341
 185    0.00096990803991998
 186    -0.00013975494770607
 187    -0.00015084357509913
 188    -6.644994544981e-05
 189    0.00024120681163185
 190    0.00018684258106259
 Sym= A
 Ene=               2
 Spin= Alpha
 Occup=    1.00000
   1    -0.00025715482074166
   2    -0.0010910887278413
   3    0.0028383449112556
   4    -0.0059720551843114
   5    -0.0047901130022078
   6    0.00074708557555041
   7    -0.0054799701054249
   8     0.002204923573484
   9    -0.0014576313920068
  10       0.0114939301728
  11    -0.0053836114071813
  12    0.0027922915553665
  13    -0.019237310063533
  14    0.0060787617188012
  15    0.0016875723615537
  16     0.018484606859264
  17    -0.010463494650611
  18     -0.41185190780141
  19     -0.22791588295549
  20       0.1410343564899
  21    -0.055132005004854
  22      0.59683754110351
  23     -0.19661558681392
  24      -0.1088105163837
  25      0.06717398753031
  26    -0.025868764367836
  27      0.28490712389224
  28    -0.00021616630871171
  29    -0.0025359303329572
  30    -0.0011988698367475
  31    -0.0027698717004203
  32    0.0038862005105054
  33    0.0013860843969474
  34    0.0057970285252736
  35    -0.0013654287647347
  36    0.0041545936142784
  37    0.0049175375029337
  38     0.010967187271202
  39      0.10397210845712
  40    -0.056297713371579
  41    0.0093082769648114
  42     0.095939482314813
  43    -0.050573829462135
  44    -0.0019421220705292
  45    0.0015750738579839
  46     0.002481317617181
  47    -0.00051039805357315
  48    -0.0019470018316885
  49    0.00048111489071093
  50    0.0020827668935142
  51    -0.0052471614634574
  52      0.01192764219272
  53     0.010014012650409
  54    -0.0028058746312108
  55     0.003201732508035
  56    -0.0010002100508522
  57    0.0060794015566335
  58    -0.0055658433929495
  59    0.0011896016156061
  60    -0.0093460197374052
  61     0.013983591693099
  62    -0.005759500237268
  63    0.0040871496044919
  64    0.0055082940350238
  65    -0.0040498267668577
  66    0.00087417351343941
  67    -0.0004572781495896
  68    -0.00054261885369812
  69    -0.0014347570011311
  70    0.0022366599963764
  71    0.0017851278882991
  72    -0.0019261173961134
  73    -0.0012571759929931
  74    -0.0028135808219545
  75    0.0066348913711598
  76    0.00021411791832013
  77    0.0011734516863584
  78    -0.00030415106909565
  79    -0.00017389148178944
  80    -0.0012145532796843
  81    -0.0008146719735301
  82     0.002404103122615
  83    0.0026751661545685
  84    -0.013734779801282
  85     0.020450035412045
  86     0.027370142942737
  87    -0.010512145912097
  88    -0.023517127726662
  89     0.023247383332705
  90     0.026998162381334
  91     0.060731039821613
  92    -0.059702545959605
  93     0.017250957819008
  94     0.042506150607752
  95    -0.045822392576881
  96    0.00063899576534327
  97    0.0033615693875528
  98     0.001787815056228
  99    0.0011884784266279
 100    -0.00089165064345657
 101    0.00099113287346645
 102    -0.0048284047704959
 103     0.008600439026331
 104    0.0062573849056047
 105    0.0080390681029906
 106    -0.007362907370341
 107    -0.0038447048274127
 108    -0.020736170847091
 109     0.019323860117148
 110    0.0096352896199396
 111    -0.014328592889204
 112      0.01337203669698
 113    0.0089329450555134
 114    0.00045310456796705
 115    -0.00027745128013643
 116    0.00048566668184384
 117    -0.00023035690939156
 118    0.0011612745943733
 119    -0.0032166820497738
 120     0.016185984488192
 121    -0.025551325771254
 122    -0.030117189896771
 123    0.0034011496106537
 124    -0.037379244503188
 125     0.018830012806399
 126    -0.0088187776543052
 127     0.095840881288499
 128    -0.048220265160888
 129    -0.0034861802872014
 130     0.071133261220027
 131     -0.03342438386224
 132    0.00029430364206276
 133    3.6545483289092e-05
 134    -0.0019240849512169
 135    -0.0017476272286917
 136    -0.0029872050444547
 137    8.2913497950766e-05
 138    -0.0002761604685084
 139    0.0012169084100427
 140    -0.0011124337251299
 141    -0.00013199471590357
 142    0.0015786261149686
 143    -0.00015939466924971
 144    0.00048196818428901
 145    -0.0039633876209011
 146    0.00022610241286416
 147    0.00029879295735742
 148    -0.0054574309129314
 149    0.0018386662103353
 150    0.00011418902972539
 151    5.2058331914639e-05
 152    -0.00011265598991864
 153    4.8558766184728e-05
 154    0.00022375725655494
 155    -0.00023437133554947
 156    0.0011193227617783
 157    -0.0022178742800296
 158    -0.0073817005189325
 159     0.003152684996995
 160    0.00075858376622181
 161    -0.00068874692610728
 162    -0.0086924276484784
 163    -0.001668803234387
 164    0.0015696841838566
 165    -0.0051551607050087
 166    -0.0022217577590513
 167    -0.00053051651436693
 168    -9.5714823129004e-05
 169    3.0030424973127e-05
 170    -6.2245284952155e-05
 171    0.00028786953919777
 172    -9.7853883869642e-07
 173    0.00048352136281303
 174    -0.0019623533113153
 175    0.0057868137915838
 176    0.0038972652402749
 177    -0.0041712282127412
 178    -0.0015870684456163
 179    -0.00079764557737276
 180     0.011466790913193
 181    0.0046923192977704
 182    0.0019213840322214
 183    0.0061795862139202
 184    0.0027717267114652
 185    0.0042160049761334
 186    0.0003143707013741
 187    -5.152987021721e-05
 188    5.2529449918362e-05
 189    -0.00053644195853019
 190    -0.00050882159735589
 Sym= A
 Ene=               3
 Spin= Alpha
 Occup=    1.00000
   1    0.00063359512138172
   2    0.0022675629816594
   3    -0.0078481206055781
   4    0.0051062303757925
   5    -0.0080805735751818
   6     0.011161217528247
   7    -0.0060067574745863
   8    -0.0067859382870286
   9      -0.0234915331472
  10      0.01121583051082
  11     0.012974932157909
  12     0.036585993298409
  13    -0.023839475553544
  14    -0.026804307824072
  15    -0.0073720258013506
  16     0.011647763054377
  17     0.017825035900866
  18     0.028502808508865
  19      0.59489063600373
  20     -0.35839243054971
  21     -0.10254770169756
  22      0.31777404992177
  23      0.01158120229509
  24      0.28418134665957
  25     -0.17050716188179
  26     -0.04542439146605
  27      0.15040140990019
  28    -0.0025920546240393
  29    0.0049617569847652
  30    -0.0016118191803478
  31    0.0033203379108274