[Molden Format]
made by pyscf v[2.4.0]
[Atoms] (AU)
Fe   1   26     3.17068844873907     0.00098706064664     0.12237737881307
O   2   8     0.00000000000000     0.00000000000000    -0.89004350580623
Fe   3   26    -3.17068844873907    -0.00098706064664     0.12237737881307
Cl   4   17     3.53383895113107    -2.07485195383062     3.76228752659000
Cl   5   17     5.54152580550813    -1.85590924879884    -2.78672786652360
Cl   6   17     4.48169216485503     3.92976278472880    -0.95330240907949
Cl   7   17    -3.53383895113107     2.07485195383062     3.76228752659000
Cl   8   17    -5.54152580550813     1.85590924879884    -2.78672786652360
Cl   9   17    -4.48169216485503    -3.92976278472880    -0.95330240907949
[GTO]
1 0
 s    6 1.00
              61132.62  0.0017661109761772
              9179.342   0.013530379817491
              2090.857   0.066731279099873
              589.2479    0.23148229687757
              188.7543    0.47970579352933
              64.44629    0.35019759527624
 s    6 1.00
               1259.98   0.002438014026839
              299.8761   0.032240480354921
              96.84917    0.12657240139338
               36.3102  -0.031399020345658
              14.72996   -0.62075930683366
              6.066075   -0.45029140495706
 s    6 1.00
              50.43485  -0.0038732559842369
              16.83929   0.071965979707118
              7.192086    0.25565909895954
               3.05342   -0.28828369882676
              1.273643   -0.73428219701167
              0.504091   -0.20493529916597
 s    3 1.00
              1.950316   0.056948690305124
              0.736721    0.28829150154463
              0.114177    -1.1381590060981
 s    1 1.00
              0.041148                   1
 p    6 1.00
               1259.98  0.0040280186654072
              299.8761   0.031446467387857
              96.84917    0.13683168863389
               36.3102    0.34872357103281
              14.72996    0.46179306164054
              6.066075    0.20430578302906
 p    6 1.00
              50.43485  -0.0070171278804837
              16.83929  -0.028776599509875
              7.192086   0.061813828947182
               3.05342     0.3954945932639
              1.273643    0.49890589150259
              0.504091    0.17912509694913
 p    3 1.00
              1.950316   -0.45937961634956
              0.736721    0.28521391015091
              0.114177    0.90764853230368
 p    1 1.00
              0.041148                   1
 d    3 1.00
              23.14994   0.088769354792419
              6.122368    0.38963192103518
              1.846601    0.70148163787111
 d    1 1.00
              0.504361                   1
 f    1 1.00
                   0.8                   1

2 0
 s    6 1.00
             5484.6717   0.001831099805527
             825.23495   0.013950098518422
             188.04696    0.06844509273075
               52.9645    0.23271427528445
              16.89757    0.47019295006289
             5.7996353    0.35852086192309
 s    3 1.00
             15.539616   -0.11077750382508
             3.5999336   -0.14802630511126
             1.0137618     1.1307670390447
 s    1 1.00
             0.2700058                   1
 p    3 1.00
             15.539616   0.070874299543311
             3.5999336    0.33975279781076
             1.0137618    0.72715859531445
 p    1 1.00
             0.2700058                   1
 d    1 1.00
                   0.8                   1

3 0
 s    6 1.00
              61132.62  0.0017661109761772
              9179.342   0.013530379817491
              2090.857   0.066731279099873
              589.2479    0.23148229687757
              188.7543    0.47970579352933
              64.44629    0.35019759527624
 s    6 1.00
               1259.98   0.002438014026839
              299.8761   0.032240480354921
              96.84917    0.12657240139338
               36.3102  -0.031399020345658
              14.72996   -0.62075930683366
              6.066075   -0.45029140495706
 s    6 1.00
              50.43485  -0.0038732559842369
              16.83929   0.071965979707118
              7.192086    0.25565909895954
               3.05342   -0.28828369882676
              1.273643   -0.73428219701167
              0.504091   -0.20493529916597
 s    3 1.00
              1.950316   0.056948690305124
              0.736721    0.28829150154463
              0.114177    -1.1381590060981
 s    1 1.00
              0.041148                   1
 p    6 1.00
               1259.98  0.0040280186654072
              299.8761   0.031446467387857
              96.84917    0.13683168863389
               36.3102    0.34872357103281
              14.72996    0.46179306164054
              6.066075    0.20430578302906
 p    6 1.00
              50.43485  -0.0070171278804837
              16.83929  -0.028776599509875
              7.192086   0.061813828947182
               3.05342     0.3954945932639
              1.273643    0.49890589150259
              0.504091    0.17912509694913
 p    3 1.00
              1.950316   -0.45937961634956
              0.736721    0.28521391015091
              0.114177    0.90764853230368
 p    1 1.00
              0.041148                   1
 d    3 1.00
              23.14994   0.088769354792419
              6.122368    0.38963192103518
              1.846601    0.70148163787111
 d    1 1.00
              0.504361                   1
 f    1 1.00
                   0.8                   1

4 0
 s    6 1.00
               25180.1  0.0018330003117875
               3780.35   0.014034002387139
               860.474   0.069097011753181
               242.145    0.23745204038983
               77.3349    0.48303408216255
                26.247    0.33985605780843
 s    6 1.00
               491.765  -0.0022974019889149
               116.984  -0.030714026589855
               37.4153   -0.11252809741822
               13.7834   0.045016038971443
               5.45215    0.58935351021719
               2.22588    0.46520640274012
 s    3 1.00
               3.18649    -0.2518312880459
               1.14427   0.061589315011948
              0.420377     1.0601854225489
 s    1 1.00
              0.142657                   1
 p    6 1.00
               491.765  0.0039894005477754
               116.984   0.030318004162896
               37.4153    0.12988001783353
               13.7834     0.3279510450302
               5.45215    0.45352706227276
               2.22588    0.25215403462269
 p    3 1.00
               3.18649   -0.01429901271425
               1.14427    0.32357228771069
              0.420377    0.74350766110453
 p    1 1.00
              0.142657                   1
 d    1 1.00
                  0.75                   1

5 0
 s    6 1.00
               25180.1  0.0018330003117875
               3780.35   0.014034002387139
               860.474   0.069097011753181
               242.145    0.23745204038983
               77.3349    0.48303408216255
                26.247    0.33985605780843
 s    6 1.00
               491.765  -0.0022974019889149
               116.984  -0.030714026589855
               37.4153   -0.11252809741822
               13.7834   0.045016038971443
               5.45215    0.58935351021719
               2.22588    0.46520640274012
 s    3 1.00
               3.18649    -0.2518312880459
               1.14427   0.061589315011948
              0.420377     1.0601854225489
 s    1 1.00
              0.142657                   1
 p    6 1.00
               491.765  0.0039894005477754
               116.984   0.030318004162896
               37.4153    0.12988001783353
               13.7834     0.3279510450302
               5.45215    0.45352706227276
               2.22588    0.25215403462269
 p    3 1.00
               3.18649   -0.01429901271425
               1.14427    0.32357228771069
              0.420377    0.74350766110453
 p    1 1.00
              0.142657                   1
 d    1 1.00
                  0.75                   1

6 0
 s    6 1.00
               25180.1  0.0018330003117875
               3780.35   0.014034002387139
               860.474   0.069097011753181
               242.145    0.23745204038983
               77.3349    0.48303408216255
                26.247    0.33985605780843
 s    6 1.00
               491.765  -0.0022974019889149
               116.984  -0.030714026589855
               37.4153   -0.11252809741822
               13.7834   0.045016038971443
               5.45215    0.58935351021719
               2.22588    0.46520640274012
 s    3 1.00
               3.18649    -0.2518312880459
               1.14427   0.061589315011948
              0.420377     1.0601854225489
 s    1 1.00
              0.142657                   1
 p    6 1.00
               491.765  0.0039894005477754
               116.984   0.030318004162896
               37.4153    0.12988001783353
               13.7834     0.3279510450302
               5.45215    0.45352706227276
               2.22588    0.25215403462269
 p    3 1.00
               3.18649   -0.01429901271425
               1.14427    0.32357228771069
              0.420377    0.74350766110453
 p    1 1.00
              0.142657                   1
 d    1 1.00
                  0.75                   1

7 0
 s    6 1.00
               25180.1  0.0018330003117875
               3780.35   0.014034002387139
               860.474   0.069097011753181
               242.145    0.23745204038983
               77.3349    0.48303408216255
                26.247    0.33985605780843
 s    6 1.00
               491.765  -0.0022974019889149
               116.984  -0.030714026589855
               37.4153   -0.11252809741822
               13.7834   0.045016038971443
               5.45215    0.58935351021719
               2.22588    0.46520640274012
 s    3 1.00
               3.18649    -0.2518312880459
               1.14427   0.061589315011948
              0.420377     1.0601854225489
 s    1 1.00
              0.142657                   1
 p    6 1.00
               491.765  0.0039894005477754
               116.984   0.030318004162896
               37.4153    0.12988001783353
               13.7834     0.3279510450302
               5.45215    0.45352706227276
               2.22588    0.25215403462269
 p    3 1.00
               3.18649   -0.01429901271425
               1.14427    0.32357228771069
              0.420377    0.74350766110453
 p    1 1.00
              0.142657                   1
 d    1 1.00
                  0.75                   1

8 0
 s    6 1.00
               25180.1  0.0018330003117875
               3780.35   0.014034002387139
               860.474   0.069097011753181
               242.145    0.23745204038983
               77.3349    0.48303408216255
                26.247    0.33985605780843
 s    6 1.00
               491.765  -0.0022974019889149
               116.984  -0.030714026589855
               37.4153   -0.11252809741822
               13.7834   0.045016038971443
               5.45215    0.58935351021719
               2.22588    0.46520640274012
 s    3 1.00
               3.18649    -0.2518312880459
               1.14427   0.061589315011948
              0.420377     1.0601854225489
 s    1 1.00
              0.142657                   1
 p    6 1.00
               491.765  0.0039894005477754
               116.984   0.030318004162896
               37.4153    0.12988001783353
               13.7834     0.3279510450302
               5.45215    0.45352706227276
               2.22588    0.25215403462269
 p    3 1.00
               3.18649   -0.01429901271425
               1.14427    0.32357228771069
              0.420377    0.74350766110453
 p    1 1.00
              0.142657                   1
 d    1 1.00
                  0.75                   1

9 0
 s    6 1.00
               25180.1  0.0018330003117875
               3780.35   0.014034002387139
               860.474   0.069097011753181
               242.145    0.23745204038983
               77.3349    0.48303408216255
                26.247    0.33985605780843
 s    6 1.00
               491.765  -0.0022974019889149
               116.984  -0.030714026589855
               37.4153   -0.11252809741822
               13.7834   0.045016038971443
               5.45215    0.58935351021719
               2.22588    0.46520640274012
 s    3 1.00
               3.18649    -0.2518312880459
               1.14427   0.061589315011948
              0.420377     1.0601854225489
 s    1 1.00
              0.142657                   1
 p    6 1.00
               491.765  0.0039894005477754
               116.984   0.030318004162896
               37.4153    0.12988001783353
               13.7834     0.3279510450302
               5.45215    0.45352706227276
               2.22588    0.25215403462269
 p    3 1.00
               3.18649   -0.01429901271425
               1.14427    0.32357228771069
              0.420377    0.74350766110453
 p    1 1.00
              0.142657                   1
 d    1 1.00
                  0.75                   1

[5d]
[7f]
[9g]

[MO]
 Sym= A
 Ene=               0
 Spin= Alpha
 Occup=    1.00000
   1    0.0012759818837017
   2    0.0055434649180239
   3    -0.013570483397222
   4     0.032088687694721
   5    -0.0032339629776546
   6    0.0024208330822346
   7    0.0016788077731413
   8    -0.0065155291801785
   9    -0.0049830231319424
  10    -0.0032974449749817
  11     0.011325350098021
  12    0.0077019363781077
  13    0.0067155953172261
  14     -0.02757960060642
  15    0.00039081038698449
  16    -0.0056768412503289
  17    0.0098177777653505
  18      0.22245394537473
  19     -0.34164497680153
  20     -0.49603979383921
  21      0.40008246906035
  22      0.18058994774836
  23       0.1080855849647
  24     -0.16671965520002
  25     -0.24225142286264
  26      0.19615840134386
  27     0.088638365432298
  28    0.0017929789873075
  29    -0.0016769940612273
  30    -0.0018787123588936
  31    0.00022865240790914
  32    -0.00096674632445617
  33    0.0018706732023314
  34    0.00038384016641149
  35    6.0879450825363e-05
  36    0.00046868682123635
  37    0.0018033962146096
  38    -0.00035916743246366
  39    0.00063207850523434
  40    -0.031510656461634
  41    -0.00085539845526275
  42    9.8170936447669e-05
  43    -0.029844275853823
  44    -3.6496482635677e-05
  45    9.2393504177047e-05
  46    -0.00096883527851353
  47    0.00014199992207679
  48    0.00025112652265496
  49    0.00019250944492962
  50    0.00093438014036021
  51    -0.0016905380972969
  52    0.0059944994041451
  53    0.0094874940241243
  54    -0.0013092284229934
  55    0.00011827685180632
  56    -0.00070483786447338
  57    0.0027753241980472
  58    -0.00032003642423584
  59    0.0012129836237807
  60    -0.0037382882159136
  61    -2.4255498845229e-05
  62    -0.0027323431385486
  63    0.0044066209367915
  64     0.001653601694672
  65    -0.0055912631045659
  66    0.00010739776653636
  67    8.9512683958561e-05
  68    -0.00012139788884969
  69    -0.00024432079684424
  70    -2.6792910880805e-06
  71    0.0012341723600542
  72    -0.0013375944875996
  73    0.00031015031089749
  74    -0.0011126439122601
  75    0.00020489043392405
  76    0.00018663573795439
  77    0.00073838403119176
  78    9.4697209286104e-05
  79    -0.00030631394190122
  80    -3.7820467105778e-06
  81    -0.0004240167538425
  82    5.6596296492256e-05
  83    -0.0018356420707415
  84    0.0093322017079886
  85    -0.014213726530146
  86    -0.0091842035978729
  87    -0.014811585181584
  88     0.011380964734496
  89    -0.016562036317749
  90     0.038263405113942
  91    -0.028891543332144
  92     0.041904115427681
  93     0.023546877889747
  94    -0.019368866638968
  95     0.030212528105493
  96    -0.00032575729633748
  97    0.0030185744904586
  98    -0.0012175447044604
  99    0.00075881995901066
 100    -0.0019078965684867
 101    0.00041638094514139
 102    -0.0023068274085398
 103    0.0025241931381277
 104    0.0056124955474368
 105     0.014459754082345
 106     0.023791353087566
 107    -0.010977454182692
 108    -0.037233694427116
 109    -0.061770198798561
 110        0.028287050151
 111    -0.024503012623665
 112    -0.037794417691888
 113     0.019445399522297
 114    -0.001468675471984
 115    0.0023974811572938
 116    0.0035835250857316
 117    -0.0041652715652956
 118    -0.0026090541516158
 119    0.00050609570771209
 120    -0.0027557931399626
 121    0.0032733315355931
 122    0.0088847989074121
 123     0.012611198083764
 124    -0.0041481717776938
 125      -0.0250334418192
 126    -0.032616518395531
 127     0.010804610700385
 128     0.064850885904962
 129    -0.020897237326581
 130      0.00447089650761
 131     0.041148125545731
 132    -0.0023226565172449
 133    0.0023045081197941
 134    0.0036561759170525
 135    -0.0033637892076782
 136    -0.001383484188154
 137    0.00019451815243212
 138    -0.00071612148390887
 139    0.0025769732063046
 140    7.219076821683e-05
 141    -0.001581193793072
 142    0.00058661027693536
 143    0.00056381382649753
 144    0.0042939815338778
 145    -0.0016245780371128
 146    -0.0016704362839739
 147    0.0017108048312098
 148    -0.0013621161475029
 149    -0.00056123266896456
 150    8.4426091679605e-05
 151    0.00014819926546766
 152    -3.892671454756e-05
 153    -0.00010327917367512
 154    0.00014468584190745
 155    -5.9699757600654e-05
 156    0.00033909646221471
 157    -0.00038055425511765
 158    -0.0035536584162441
 159    0.0007871035170097
 160    1.6939050411624e-05
 161    -0.00057663631545555
 162    -0.0021268857864706
 163    8.5392235401876e-05
 164    0.0012951781611498
 165    -0.0016683330491594
 166    -0.00012825066257985
 167    0.0014653860007954
 168    1.1910549104661e-05
 169    3.7864795961014e-06
 170    -6.6366871521314e-05
 171    5.3531805922294e-05
 172    -5.2126444500592e-05
 173    5.2417272059554e-05
 174    -4.5014157490498e-05
 175    0.0012516394549193
 176    -0.0025350434635784
 177    -0.00018671537908004
 178    -0.00012168233174467
 179    -0.00072742990694433
 180    0.00071481048980336
 181    0.00043219630391477
 182    0.0019118455961465
 183    -0.00088336750634715
 184    -0.00064026506535343
 185    0.0016825933229049
 186    -1.873297695223e-05
 187    -8.2975926204782e-05
 188    -2.0170044359323e-05
 189    -2.7885380807605e-05
 190    -2.1422510934499e-05
 Sym= A
 Ene=               1
 Spin= Alpha
 Occup=    1.00000
   1    0.00072350995246637
   2    0.0032756120807925
   3    -0.0073518970933662
   4     0.020540013475499
   5    -0.00058901244790745
   6    0.0015303653449643
   7    -0.0096963782927541
   8    -0.0044245333269849
   9    -0.0030393158874468
  10      0.01630218483406
  11    0.0070351945264507
  12    0.0050439554958432
  13    -0.041533617273055
  14    -0.019451273682085
  15    -0.0032265701903608
  16     0.012675048023103
  17    0.0023904317524916
  18     -0.53838936724731
  19    -0.089627777927629
  20     -0.42205123792509
  21     -0.15474262090192
  22     -0.32428064594519
  23     -0.26185338574614
  24    -0.042940555354106
  25     -0.20530977333347
  26    -0.074869274512416
  27     -0.15763125250769
  28    -0.0014736468624992
  29    -0.0025972790694577
  30    -0.0012190281640605
  31    -0.0014786858190295
  32    -0.0026117935873285
  33    0.00016824369099318
  34     -0.00245750228127
  35    -0.00095619060019913
  36    0.0025504773637216
  37    0.0055579120676778
  38    0.0044946072549203
  39    -0.048903589116334
  40    -0.034047016856356
  41    0.0035256032411531
  42    -0.045719630383363
  43    -0.032281101761235
  44    -0.001694113085732
  45    0.00088393262050997
  46    -0.0018455402358453
  47    -0.00056600104302835
  48     0.001049127923891
  49    0.00031898908791254
  50    0.0014647106418775
  51    -0.0030718787198245
  52    0.0094650943502072
  53     0.003703990882424
  54    -0.0018401874786107
  55    -0.0016450836679216
  56    -0.00046855113209218
  57    0.0036168750449172
  58    0.0026118780727249
  59    0.00053779000602757
  60    -0.0061521587660912
  61    -0.0071819447254782
  62    -0.0028105930371393
  63    0.0018589541514226
  64    -0.0076101620907279
  65    -0.0040647494504455
  66    0.00016570490782031
  67    0.00039865187006197
  68    -0.00013508838773616
  69    -0.00062491511413334
  70    0.00012013076724783
  71    0.0017534927820272
  72    -0.0009667252110499
  73    0.00096405249928558
  74    -0.0013481585911877
  75    -0.003356253189498
  76    7.5922893890722e-05
  77    0.00079983259134819
  78    0.00029694202009021
  79    -0.00031355354653602
  80    0.00070045099164264
  81    -0.00055728725149728
  82    -0.0013343174726521
  83    0.00010479150579422
  84    -0.00064152091269277
  85    0.00045147716574416
  86    0.0047025236230499
  87    0.0035623301781108
  88    -0.026297959867725
  89     -0.01364283627929
  90    -0.0094194910345173
  91     0.068542611877956
  92     0.035390119932274
  93    -0.0051289430486213
  94     0.044421642161404
  95     0.021896910538955
  96    0.0051761673672058
  97    -0.00057842643779743
  98    0.0028178417281586
  99    0.0027196655318206
 100    0.00063978919739516
 101    0.0010994493123893
 102    -0.005793531969647
 103    0.0077854245909131
 104    0.0078202425037608
 105     0.020697895164893
 106    -0.015433132010139
 107    0.0079134149432892
 108     -0.05308708321613
 109     0.039756381256657
 110    -0.021189212975356
 111    -0.034135354775819
 112     0.028033384113144
 113    -0.010317497792579
 114    0.0048076010202369
 115    -0.00026767163835364
 116    0.00033511502854695
 117    -0.0013932704004188
 118    0.0023926152380737
 119    -0.0017053952520647
 120    0.0086146432820304
 121    -0.013226405631517
 122    -0.0077638357905661
 123    -0.015973996685326
 124    -0.017805417063589
 125    -0.0042893045460167
 126     0.040779570768845
 127     0.044796856862587
 128     0.011689122562342
 129     0.026088451050431
 130      0.03256221199841
 131    0.0077916373636031
 132    -0.0016853191269894
 133    -0.00045779173493911
 134    0.0012466720331327
 135    0.00079997337615169
 136     0.002584117943074
 137    0.00022549164134334
 138    -0.001077741696406
 139    0.0020937242091003
 140    0.0050325350353306
 141    -0.0022368049868632
 142    -7.2062399866938e-05
 143    0.0016979167940049
 144    0.0061064951399258
 145    8.0764282798692e-05
 146    -0.0046894770986796
 147    0.0026164358023992
 148    -4.3340513796918e-05
 149    -0.0041120886167234
 150    -4.5300248016242e-06
 151    0.00029756044775404
 152    5.1366005656913e-06
 153    -0.00013130724236432
 154      1.7085237803e-05
 155    6.8172618398681e-05
 156    -0.00027633794073059
 157    0.00082199652190386
 158    0.00022766540762307
 159    -0.00056757990058062
 160    -0.00038140140467355
 161    -0.00075431939793466
 162     0.001690090752258
 163    0.00085997990401133
 164    0.0018447983408382
 165    0.00063351457258145
 166     0.002219296149251
 167    0.0027102696618122
 168    7.6184717675068e-05
 169    -2.4116950831057e-05
 170    -6.1939822030247e-05
 171    -4.7686678377022e-05
 172    -6.5121183716424e-05
 173    -0.00020737823562212
 174    0.00094758018622044
 175    -0.0020897522096867
 176    -0.0050261577980437
 177    0.0024512158458183
 178    0.00061823853274334
 179    -0.00079247611751277
 180    -0.0067562761326144
 181     -0.00196138784252
 182    0.0020811882894153
 183    -0.0024521579977777
 184    -0.00091786502525518
 185    0.0008812711102742
 186    -0.00012230623299461
 187    -0.00014438742842595
 188    -5.0931275922741e-05
 189    0.00020543647781803
 190    0.00014236368384929
 Sym= A
 Ene=               2
 Spin= Alpha
 Occup=    1.00000
   1    -0.00025952355818195
   2    -0.0011035714383747
   3    0.0029789559982932
   4    -0.0061262168329764
   5    -0.0043490330754003
   6    0.0008290364343684
   7    -0.0053330653320468
   8    0.0024360417551066
   9    -0.0013989503636937
  10     0.011430006215249
  11    -0.0054635634524355
  12    0.0032151615770162
  13    -0.018844676730571
  14    0.0079579945313813
  15    0.0012905514868963
  16     0.017613224394239
  17    -0.0097939775424443
  18     -0.41344659458312
  19     -0.22928657655876
  20      0.14198856448557
  21    -0.054881062165746
  22      0.60028281776804
  23     -0.19607198143286
  24     -0.10859465315804
  25     0.067087683545769
  26     -0.02553653685225
  27      0.28454407571571
  28    -0.00025544514530103
  29    -0.0024485491200957
  30    -0.0011543271489181
  31    -0.0027115636740891
  32    0.0038093779556183
  33    0.0013360193587431
  34    0.0055997940406192
  35    -0.0014977598083934
  36    0.0043742101899922
  37    0.0053493727377605
  38    0.0096026597175657
  39     0.086928694707186
  40    -0.047237870873478
  41    0.0092414483182889
  42     0.090159112317053
  43    -0.047499831145323
  44    -0.0018778406629141
  45    0.0014801772021815
  46    0.0023382849236332
  47    -0.00043463440148512
  48    -0.0017610643419129
  49    0.00051346870373777
  50    0.0021853185439516
  51    -0.0052517986714099
  52     0.011800238082234
  53    0.0090936522529109
  54    -0.0029348316754891
  55     0.003518289740121
  56    -0.001292659389638
  57     0.005856200754768
  58    -0.0054670637185388
  59    0.0013087286141196
  60    -0.0096314340316576
  61     0.015217561725658
  62    -0.0071231309234368
  63    0.0037337364963844
  64    0.0049640320031685
  65    -0.0039519610181059
  66    0.00064820442250955
  67    0.00064957332219835
  68    -0.00026281295433874
  69    -0.001028399743716
  70    -0.00013511412100861
  71    0.0015977762091973
  72    -0.0015193408199183
  73    -0.0010258642737134
  74    -0.0026016616126984
  75    0.0055878062190584
  76    0.0002149933374382
  77    0.0010853154699148
  78    -0.00026066300206367
  79    -0.00015190355182546
  80    -0.0011420052399908
  81    -0.00072712927190168
  82    0.0022119066641236
  83    0.0026337892472745
  84    -0.013554369366272
  85     0.019967098817943
  86     0.026360663654129
  87    -0.010422034611014
  88    -0.023295252148124
  89      0.02312661793264
  90     0.026803689747069
  91      0.06003173798921
  92    -0.059285437986063
  93      0.01694786967884
  94     0.042207844734997
  95    -0.045500879337369
  96    0.0006256613727532
  97    0.0034424270016223
  98    0.0018329804123914
  99    0.0012394267250808
 100    -0.00091767742366607
 101    0.0010227412150259
 102    -0.0049309254704796
 103    0.0090912534722529
 104    0.0065109317375359
 105    0.0081951064278019
 106    -0.0073796454196817
 107    -0.0038842155045276
 108    -0.021243687399817
 109     0.019367394028458
 110    0.0098075132621097
 111    -0.014529176552343
 112     0.013704113867851
 113    0.0088134596578823
 114    0.00044952233846889
 115    -0.0003132957779382
 116    0.00050162805501926
 117    -0.00021808831519147
 118    0.0011627604112876
 119    -0.0032232440466107
 120     0.016181012083131
 121    -0.025736637715507
 122    -0.029583739777881
 123    0.0033689774851135
 124    -0.037394182366001
 125     0.018930058185983
 126    -0.0087912689773118
 127     0.095874347594769
 128    -0.048534848247005
 129    -0.0032722009086203
 130     0.071102384137314
 131     -0.03359525634894
 132    0.00033361162108277
 133    3.3843751966178e-05
 134    -0.0019386890387939
 135    -0.0017998172843598
 136    -0.0030822405752878
 137    0.0001128638063912
 138    -0.00038939538938579
 139    0.0016207901415416
 140    -0.00070817136397125
 141    -0.00016947306501428
 142    0.0018334788989342
 143    -0.00012441570551041
 144    0.00062598662499559
 145    -0.0047694466167327
 146    0.00010822458202711
 147    0.0002683114799632
 148    -0.0056435782645138
 149    0.0016748083844057
 150    0.00011055709144924
 151    5.1154476171545e-05
 152    -5.652055991401e-05
 153    2.5273130192748e-05
 154    0.0002010206564565
 155    -0.00029809812876469
 156    0.0013102092600279
 157    -0.0032596787105663
 158    -0.0074441467118922
 159    0.0033704742824797
 160    0.00071592260443788
 161    -0.00053458731442442
 162    -0.0093607315486831
 163    -0.0015216926640966
 164    0.0010267954103416
 165    -0.0055861872623767
 166    -0.001979937876995
 167    -0.00068972463159654
 168    -6.8795863066135e-05
 169    -2.8226541680992e-05
 170    -4.8695091011179e-05
 171    0.00022996566439206
 172    2.9338286260388e-05
 173    0.00052534337394661
 174    -0.0021046639030585
 175    0.0063978215251509
 176     0.003951715497042
 177      -0.0043221759842
 178    -0.0017253957475705
 179    -0.0010087290527483
 180     0.011899949423454
 181    0.0051240877942879
 182    0.0025816478537807
 183    0.0064673129818338
 184    0.0029840856164945
 185    0.0043905825937597
 186    0.00026846611358368
 187    -2.0842420779184e-05
 188    8.3276551185857e-05
 189    -0.00050987606541656
 190    -0.00040685860375666
 Sym= A
 Ene=               3
 Spin= Alpha
 Occup=    1.00000
   1    0.00061696906285205
   2    0.0021510617510132
   3    -0.0074553315729194
   4    0.0040409502610016
   5    -0.0078847749523309
   6     0.011138145054835
   7    -0.005613359883598
   8    -0.0064626129873959
   9     -0.02338618641328
  10     0.011051525028619
  11     0.012828321915527
  12     0.036071365546355
  13    -0.021130234107619
  14    -0.025038575566906
  15    -0.0072322355531217
  16     0.011587516786751
  17     0.017500583218284
  18     0.029137869293198
  19      0.59773819947286
  20     -0.35896700106777
  21     -0.10284331679314
  22      0.31926294631279
  23     0.011517524460597
  24      0.28363554841711
  25     -0.16978981942061
  26    -0.045013927690041
  27      0.15006878272951
  28    -0.0025236070067702
  29    0.0048891345702508
  30    -0.0015878645413373
  31    0.0031926800908636