[Molden Format]
made by pyscf v[2.2.1]
[Atoms] (AU)
Fe   1   26    10.35569916261654     2.17318504324982   -15.17450078025744
S   2   16     7.65339080448850    -1.15273293598469   -16.53510358994429
S   3   16    14.15404867299231     0.79368497231733   -17.08312416606816
Fe   4   26    11.41394579237297    -2.30546587196938   -18.19806257956155
S   5   16    10.33680190137089     2.36215765570633   -10.54467177507304
S   6   16     8.74943195673624     6.19830168857340   -16.57289811243559
S   7   16    10.86592521624911    -2.83458918684759   -22.77119980100900
S   8   16    12.96352121451632    -6.44396608476686   -16.74297346364645
C   9   6    10.41239094635349     8.40928125431453   -14.19184319548361
H   10   1    12.26432254842725     9.12737718164925   -14.96663090655529
H   11   1     9.20296622663185    10.07224024393178   -13.70051440309670
H   12   1    10.80923343251215     7.25654831832984   -12.45329516088376
C   13   6     6.80301404843422     3.21253441176060   -10.46908273009044
H   14   1     5.68807563494084     1.51178089965205   -10.99820604496866
H   15   1     6.19830168857340     3.89283581660403    -8.54156208303408
H   16   1     6.46286334601251     4.68652078892135   -11.92417184600554
C   17   6     9.84547310898397    -7.97464424566456   -17.87680913838549
H   18   1     9.63760323528181    -7.57780175950590   -19.93661061416140
H   19   1     9.84547310898397   -10.05334298268613   -17.49886391347247
H   20   1     8.25810316434932    -7.02978118338203   -16.87525429236600
C   21   6    14.41861033043142    -3.49599333044536   -23.13024776467636
H   22   1    14.92883638406399    -3.89283581660403   -25.15225471796098
H   23   1    15.49575422143351    -1.81413707958246   -22.41215183734163
H   24   1    14.90993912281834    -5.14005505881697   -21.90192578370907
[GTO]
1 0
 s    6 1.00
          60923.640643  0.0017552243692958
          9147.8893982   0.013449023284001
          2081.3505927   0.066678874640978
          587.55977067    0.23176348548844
           191.0904399    0.46945550248188
          65.732730112     0.3596824938678
 s    3 1.00
          127.25891928   -0.10723431835929
           14.83091301    0.62971616328466
          6.0653307408    0.44472317896179
 s    3 1.00
           10.44994371   -0.21694289195548
          1.7245228003    0.69457867408393
         0.71772177325    0.43298308896347
 s    1 1.00
        0.091449828308                   1
 s    1 1.00
        0.033706691021                   1
 p    5 1.00
          773.43750995  0.0091440529992506
          182.15149714   0.067887577136571
          57.547272758    0.26167978878504
          20.614988935    0.51088040113251
           7.634855789    0.33235475570224
 p    3 1.00
           3.871932799    0.33193859098144
          1.4924724132     0.5553666555499
         0.56061284958    0.23106034201617
 p    1 1.00
              0.134915                   1
 d    4 1.00
          38.968133419   0.033335938558743
          10.800067078    0.17766212505983
          3.6136457999      0.441281781625
          1.2129967888    0.57089200490673
 d    1 1.00
          0.3652439317                   1
 f    1 1.00
                 1.598                   1

2 0
 s    5 1.00
           9184.930301  -0.0054729466134731
          1381.5105503  -0.040954402155135
           313.8714758   -0.18475828956188
          88.053870623   -0.47567280643953
          27.039914905   -0.43495153584169
 s    3 1.00
          45.648731303  -0.091904045808942
          4.9664522326    0.55698777214497
          2.0116242047     0.5111546829846
 s    1 1.00
         0.35661077013                   1
 s    1 1.00
         0.13507221477                   1
 p    5 1.00
          261.98233439  -0.009183054659266
          61.306894736   -0.06590222652599
          19.103729887   -0.24587784518735
          6.6567720378    -0.4823147107602
          2.3959635161   -0.38956314351423
 p    1 1.00
         0.61776161679                   1
 p    1 1.00
         0.16993376871                   1
 d    1 1.00
                  0.55                   1

3 0
 s    5 1.00
           9184.930301  -0.0054729466134731
          1381.5105503  -0.040954402155135
           313.8714758   -0.18475828956188
          88.053870623   -0.47567280643953
          27.039914905   -0.43495153584169
 s    3 1.00
          45.648731303  -0.091904045808942
          4.9664522326    0.55698777214497
          2.0116242047     0.5111546829846
 s    1 1.00
         0.35661077013                   1
 s    1 1.00
         0.13507221477                   1
 p    5 1.00
          261.98233439  -0.009183054659266
          61.306894736   -0.06590222652599
          19.103729887   -0.24587784518735
          6.6567720378    -0.4823147107602
          2.3959635161   -0.38956314351423
 p    1 1.00
         0.61776161679                   1
 p    1 1.00
         0.16993376871                   1
 d    1 1.00
                  0.55                   1

4 0
 s    6 1.00
          60923.640643  0.0017552243692958
          9147.8893982   0.013449023284001
          2081.3505927   0.066678874640978
          587.55977067    0.23176348548844
           191.0904399    0.46945550248188
          65.732730112     0.3596824938678
 s    3 1.00
          127.25891928   -0.10723431835929
           14.83091301    0.62971616328466
          6.0653307408    0.44472317896179
 s    3 1.00
           10.44994371   -0.21694289195548
          1.7245228003    0.69457867408393
         0.71772177325    0.43298308896347
 s    1 1.00
        0.091449828308                   1
 s    1 1.00
        0.033706691021                   1
 p    5 1.00
          773.43750995  0.0091440529992506
          182.15149714   0.067887577136571
          57.547272758    0.26167978878504
          20.614988935    0.51088040113251
           7.634855789    0.33235475570224
 p    3 1.00
           3.871932799    0.33193859098144
          1.4924724132     0.5553666555499
         0.56061284958    0.23106034201617
 p    1 1.00
              0.134915                   1
 d    4 1.00
          38.968133419   0.033335938558743
          10.800067078    0.17766212505983
          3.6136457999      0.441281781625
          1.2129967888    0.57089200490673
 d    1 1.00
          0.3652439317                   1
 f    1 1.00
                 1.598                   1

5 0
 s    5 1.00
           9184.930301  -0.0054729466134731
          1381.5105503  -0.040954402155135
           313.8714758   -0.18475828956188
          88.053870623   -0.47567280643953
          27.039914905   -0.43495153584169
 s    3 1.00
          45.648731303  -0.091904045808942
          4.9664522326    0.55698777214497
          2.0116242047     0.5111546829846
 s    1 1.00
         0.35661077013                   1
 s    1 1.00
         0.13507221477                   1
 p    5 1.00
          261.98233439  -0.009183054659266
          61.306894736   -0.06590222652599
          19.103729887   -0.24587784518735
          6.6567720378    -0.4823147107602
          2.3959635161   -0.38956314351423
 p    1 1.00
         0.61776161679                   1
 p    1 1.00
         0.16993376871                   1
 d    1 1.00
                  0.55                   1

6 0
 s    5 1.00
           9184.930301  -0.0054729466134731
          1381.5105503  -0.040954402155135
           313.8714758   -0.18475828956188
          88.053870623   -0.47567280643953
          27.039914905   -0.43495153584169
 s    3 1.00
          45.648731303  -0.091904045808942
          4.9664522326    0.55698777214497
          2.0116242047     0.5111546829846
 s    1 1.00
         0.35661077013                   1
 s    1 1.00
         0.13507221477                   1
 p    5 1.00
          261.98233439  -0.009183054659266
          61.306894736   -0.06590222652599
          19.103729887   -0.24587784518735
          6.6567720378    -0.4823147107602
          2.3959635161   -0.38956314351423
 p    1 1.00
         0.61776161679                   1
 p    1 1.00
         0.16993376871                   1
 d    1 1.00
                  0.55                   1

7 0
 s    5 1.00
           9184.930301  -0.0054729466134731
          1381.5105503  -0.040954402155135
           313.8714758   -0.18475828956188
          88.053870623   -0.47567280643953
          27.039914905   -0.43495153584169
 s    3 1.00
          45.648731303  -0.091904045808942
          4.9664522326    0.55698777214497
          2.0116242047     0.5111546829846
 s    1 1.00
         0.35661077013                   1
 s    1 1.00
         0.13507221477                   1
 p    5 1.00
          261.98233439  -0.009183054659266
          61.306894736   -0.06590222652599
          19.103729887   -0.24587784518735
          6.6567720378    -0.4823147107602
          2.3959635161   -0.38956314351423
 p    1 1.00
         0.61776161679                   1
 p    1 1.00
         0.16993376871                   1
 d    1 1.00
                  0.55                   1

8 0
 s    5 1.00
           9184.930301  -0.0054729466134731
          1381.5105503  -0.040954402155135
           313.8714758   -0.18475828956188
          88.053870623   -0.47567280643953
          27.039914905   -0.43495153584169
 s    3 1.00
          45.648731303  -0.091904045808942
          4.9664522326    0.55698777214497
          2.0116242047     0.5111546829846
 s    1 1.00
         0.35661077013                   1
 s    1 1.00
         0.13507221477                   1
 p    5 1.00
          261.98233439  -0.009183054659266
          61.306894736   -0.06590222652599
          19.103729887   -0.24587784518735
          6.6567720378    -0.4823147107602
          2.3959635161   -0.38956314351423
 p    1 1.00
         0.61776161679                   1
 p    1 1.00
         0.16993376871                   1
 d    1 1.00
                  0.55                   1

9 0
 s    5 1.00
          1238.4016938  0.0055173650481097
          186.29004992   0.041088828555946
          42.251176346     0.1822538212649
          11.676557932    0.46828459437429
          3.5930506482    0.44575817336002
 s    1 1.00
         0.40245147363                   1
 s    1 1.00
         0.13090182668                   1
 p    3 1.00
          9.4680970621   0.056888332011037
          2.0103545142    0.31294059336471
         0.54771004707    0.76065016509135
 p    1 1.00
         0.15268613795                   1
 d    1 1.00
                   0.8                   1

10 0
 s    3 1.00
             13.010701   0.033485484812989
             1.9622572    0.23472187088125
            0.44453796    0.81377028525955
 s    1 1.00
            0.12194962                   1
 p    1 1.00
                   0.8                   1

11 0
 s    3 1.00
             13.010701   0.033485484812989
             1.9622572    0.23472187088125
            0.44453796    0.81377028525955
 s    1 1.00
            0.12194962                   1
 p    1 1.00
                   0.8                   1

12 0
 s    3 1.00
             13.010701   0.033485484812989
             1.9622572    0.23472187088125
            0.44453796    0.81377028525955
 s    1 1.00
            0.12194962                   1
 p    1 1.00
                   0.8                   1

13 0
 s    5 1.00
          1238.4016938  0.0055173650481097
          186.29004992   0.041088828555946
          42.251176346     0.1822538212649
          11.676557932    0.46828459437429
          3.5930506482    0.44575817336002
 s    1 1.00
         0.40245147363                   1
 s    1 1.00
         0.13090182668                   1
 p    3 1.00
          9.4680970621   0.056888332011037
          2.0103545142    0.31294059336471
         0.54771004707    0.76065016509135
 p    1 1.00
         0.15268613795                   1
 d    1 1.00
                   0.8                   1

14 0
 s    3 1.00
             13.010701   0.033485484812989
             1.9622572    0.23472187088125
            0.44453796    0.81377028525955
 s    1 1.00
            0.12194962                   1
 p    1 1.00
                   0.8                   1

15 0
 s    3 1.00
             13.010701   0.033485484812989
             1.9622572    0.23472187088125
            0.44453796    0.81377028525955
 s    1 1.00
            0.12194962                   1
 p    1 1.00
                   0.8                   1

16 0
 s    3 1.00
             13.010701   0.033485484812989
             1.9622572    0.23472187088125
            0.44453796    0.81377028525955
 s    1 1.00
            0.12194962                   1
 p    1 1.00
                   0.8                   1

17 0
 s    5 1.00
          1238.4016938  0.0055173650481097
          186.29004992   0.041088828555946
          42.251176346     0.1822538212649
          11.676557932    0.46828459437429
          3.5930506482    0.44575817336002
 s    1 1.00
         0.40245147363                   1
 s    1 1.00
         0.13090182668                   1
 p    3 1.00
          9.4680970621   0.056888332011037
          2.0103545142    0.31294059336471
         0.54771004707    0.76065016509135
 p    1 1.00
         0.15268613795                   1
 d    1 1.00
                   0.8                   1

18 0
 s    3 1.00
             13.010701   0.033485484812989
             1.9622572    0.23472187088125
            0.44453796    0.81377028525955
 s    1 1.00
            0.12194962                   1
 p    1 1.00
                   0.8                   1

19 0
 s    3 1.00
             13.010701   0.033485484812989
             1.9622572    0.23472187088125
            0.44453796    0.81377028525955
 s    1 1.00
            0.12194962                   1
 p    1 1.00
                   0.8                   1

20 0
 s    3 1.00
             13.010701   0.033485484812989
             1.9622572    0.23472187088125
            0.44453796    0.81377028525955
 s    1 1.00
            0.12194962                   1
 p    1 1.00
                   0.8                   1

21 0
 s    5 1.00
          1238.4016938  0.0055173650481097
          186.29004992   0.041088828555946
          42.251176346     0.1822538212649
          11.676557932    0.46828459437429
          3.5930506482    0.44575817336002
 s    1 1.00
         0.40245147363                   1
 s    1 1.00
         0.13090182668                   1
 p    3 1.00
          9.4680970621   0.056888332011037
          2.0103545142    0.31294059336471
         0.54771004707    0.76065016509135
 p    1 1.00
         0.15268613795                   1
 d    1 1.00
                   0.8                   1

22 0
 s    3 1.00
             13.010701   0.033485484812989
             1.9622572    0.23472187088125
            0.44453796    0.81377028525955
 s    1 1.00
            0.12194962                   1
 p    1 1.00
                   0.8                   1

23 0
 s    3 1.00
             13.010701   0.033485484812989
             1.9622572    0.23472187088125
            0.44453796    0.81377028525955
 s    1 1.00
            0.12194962                   1
 p    1 1.00
                   0.8                   1

24 0
 s    3 1.00
             13.010701   0.033485484812989
             1.9622572    0.23472187088125
            0.44453796    0.81377028525955
 s    1 1.00
            0.12194962                   1
 p    1 1.00
                   0.8                   1

[5d]
[7f]
[9g]

[MO]
 Sym= A
 Ene=               0
 Spin= Alpha
 Occup=    1.00000
   1    -0.00076688071181124
   2    0.0022871868779043
   3    -0.010175522167801
   4     0.018235937933061
   5    -0.012202284618359
   6    0.00077052601048976
   7    -0.0017029797455112
   8    -0.0014468307197193
   9    -0.0023954366541302
  10    0.0052616957099967
  11    0.0045106704675318
  12    0.0035487164962933
  13    -0.005827540169022
  14    -0.0063218910401418
  15    -0.0096368844265467
  16      0.57873315897983
  17     -0.35275876092006
  18      0.55531838283547
  19    -0.068557635560491
  20    -0.0019532408818977
  21       0.1560316664815
  22    -0.096618142381034
  23      0.14995257546353
  24    -0.017930929510519
  25    -3.5051889589734e-06
  26    0.0002720083216844
  27    9.6713600647796e-05
  28    0.00019671727647145
  29    0.00028519137291873
  30    0.00015011786086729
  31    0.00035592851724838
  32    0.00043975187070627
  33    0.0030008663581086
  34    -0.0058659981089833
  35    -0.0059662742118804
  36     0.017631940889486
  37    -0.011144209035516
  38    0.0086992659907654
  39     0.029828226625089
  40    -0.019038045935543
  41     0.014521774877343
  42     0.047441130161725
  43      -0.0331239780415
  44     0.030465782530574
  45    -0.0022520919313991
  46    -0.00081204785706115
  47    0.00044039582631636
  48    -0.00014253683536136
  49    -0.0022872531655333
  50    0.0003741551255141
  51    0.0025801520543336
  52    -0.0055001529417701
  53    -0.0055310570123971
  54    -0.015412994677876
  55    -0.0019797942827293
  56    -0.015504902899976
  57    -0.025953429415356
  58    -0.0035818821473454
  59    -0.026189547986151
  60    -0.042722011647573
  61    -0.0011467516051912
  62    -0.047940767107963
  63    0.00092480528880743
  64    0.00088999357761711
  65     0.002466471591752
  66    -4.2863561478339e-05
  67    0.0016055116601643
  68    -0.001614523724997
  69      0.00462568337601
  70    -0.022359663233956
  71     0.040007064263613
  72    -0.014088188637722
  73    -0.00062144254550688
  74    0.0027161065141799
  75    0.0018642695543522
  76    0.0020360091058071
  77    -0.0088776906787824
  78    -0.0060957773019177
  79    -0.0033535076510244
  80     0.012683097529878
  81    0.0090667261667457
  82    -0.0011614081369062
  83    -0.0029664285588122
  84    0.0042685679000936
  85    -0.0020226170476768
  86    0.00024967736334226
  87    -0.0019146767045166
  88    -0.004547445007455
  89    0.00076522021689177
  90    0.00057046292670022
  91    0.0033209092637117
  92    5.0623480338587e-05
  93    -0.00017372227243324
  94    -0.00018258886590178
  95    0.00036676939214498
  96    5.1170044544752e-05
  97    -0.0003525893371791
  98    0.00013855184472402
  99    0.00060736196814564
 100    0.0040225051096185
 101    -0.0066714400695463
 102    -0.0051214065608433
 103    -0.0039435590365922
 104    0.0086543216127172
 105    -0.0018496819452452
 106    -0.0069543525623656
 107     0.015018196924288
 108    -0.0028655757941394
 109    -0.006822705443783
 110     0.024390315559533
 111    -0.0075687404403604
 112    -0.0014337996250859
 113    -0.0025252894023932
 114    0.0014987943961181
 115    0.0021255259834559
 116    -0.0013904619561163
 117    0.00087033408258869
 118    0.0057265266396888
 119    -0.0084805299732285
 120    -0.0089374844899383
 121    0.0049095574759813
 122    0.0014483455874353
 123    0.0056551223624645
 124    0.0083973060009904
 125    0.0028790409366366
 126    0.0098380211744354
 127      0.01269035302719
 128    -2.9676159853932e-05
 129     0.013896512683964
 130    -0.0011287501605203
 131    0.00052178102433473
 132    0.0036336868428077
 133    -0.0025459202289723
 134     0.002570763000479
 135    0.00022543366232447
 136    0.0015080058618982
 137    -0.0033601243103352
 138    0.0017998041409747
 139    -0.00057960641936665
 140    -0.0010522068660008
 141    -0.0026586444363815
 142    -0.0013010282610922
 143    -0.0019149159561224
 144    -0.0046064270466182
 145    0.00014161505804326
 146    -0.0034183165191162
 147    -0.0085322568799526
 148    1.9911926262433e-05
 149    0.00015393609680076
 150    0.00030336901169279
 151    -0.00019493694179006
 152    0.00018052470763862
 153    0.00024261263576747
 154    0.0016237884243983
 155    -0.0035595591838029
 156    0.0015907891869769
 157    0.0013503046189008
 158    -0.0026381418258498
 159    0.00021544527457507
 160    0.0026079098601038
 161    -0.0045535087514703
 162    0.00034902729681933
 163    0.0027594722520678
 164    -0.0089341723785627
 165    0.00038894234455666
 166    -0.00011116579998794
 167    -0.0001798275352931
 168    0.00020596183987339
 169    -5.129602289783e-05
 170    -0.00033592001461721
 171    -0.0033633649227052
 172    0.0079109002130236
 173    0.0038854050834561
 174    -0.007060307085222
 175    -0.012275062281719
 176    -0.010181615058397
 177    -0.0066803586393807
 178    -0.0052306182197159
 179    -0.0088830020866075
 180    0.0003083502494829
 181    0.00060411810940684
 182    0.00070573238750748
 183    -7.6455678661322e-05
 184    0.00055895220803447
 185    -0.0031169806175986
 186    -0.0013720612121578
 187    8.5564548018622e-05
 188    -0.00044475961556629
 189    -0.00028857609725148
 190    -0.0044751312836732
 191    -0.0032946143969965
 192    -0.00038241360940891
 193    -8.7400986034446e-05
 194    -7.2264237960426e-05
 195    0.00028259991917929
 196    0.0027788385703188
 197    -8.0445034888562e-05
 198    0.00011704754979351
 199    -3.7265117550545e-05
 200    -0.0030138857596282
 201    0.0063735025102444
 202    0.0071531331227764
 203     0.013355617966564
 204    -0.0035502013424281
 205    -0.0030347358246275
 206     0.009458950582702
 207    -0.000952515877243
 208    -0.00029265127621111
 209    -0.00079960497416447
 210    0.00032945869716654
 211    -0.00015697559054538
 212     0.000834941964145
 213    0.00016605368862061
 214    0.00064773215724649
 215    0.0021006689683191
 216    0.00025446285627749
 217    -1.9352082439573e-05
 218    -8.9226080004781e-05
 219    -0.0054624795630997
 220    -0.0040966171603333
 221    0.00025177256229785
 222    -2.9191818408438e-05
 223    0.0001464688585107
 224    -0.0012055122422352
 225    -0.003645101543204
 226    2.4570929671317e-05
 227    5.1009175358912e-05
 228     5.68161739331e-05
 229    0.00058905480370967
 230    -0.00070237597651196
 231    -0.0090079294972329
 232    0.00054319179027094
 233    -0.001289002132272
 234    -0.0010917955774628
 235    0.0022401822016871
 236    -0.00069597764816357
 237    -0.0013240657802327
 238    2.9259789641421e-05
 239    3.2111406683436e-05
 240    -5.9704920936628e-05
 241    1.5981211665083e-05
 242    -0.00013973575832944
 243    0.00026667880902861
 244    0.0031338568853285
 245    -4.6148746763449e-05
 246    -9.5913053408049e-05
 247    3.3761355680003e-05
 248    0.00039180089386025
 249    0.0018078938093985
 250    4.4542451566056e-05
 251    5.2766320340507e-05
 252    -3.0172591899429e-05
 253    -0.00065587648326863
 254    0.0075051746207046
 255    0.00010226749145146
 256    0.00024167228797874
 257    -2.4212953626256e-05
 258    0.00050458516024316
 259    -0.00057255009360457
 260    -0.0083143709131706
 261    0.00018332000919692
 262    -0.0013231571118875
 263    -0.00066599491995386
 264    -0.001266311118206
 265    -0.0016287741140511
 266    -0.00024741612115172
 267    4.1422784145998e-05
 268    0.00015190607700357
 269    -2.6493725010362e-05
 270    -3.8648218356337e-05
 271    3.7044842775323e-05
 272    0.00025039671115909
 273    0.0016597487326173
 274    -5.4675473033402e-05
 275    -1.4378003911588e-05
 276    5.7470265871482e-05
 277    -0.00050946160976916
 278    0.0066423459599543
 279    -0.00014494830543545
 280    7.6052452004994e-06
 281    0.00015855947929538
 282    0.00025838470269085
 283    0.0031401914728259
 284    5.891487444504e-05
 285    1.0437985818261e-05
 286    -9.8212551054592e-05
 Sym= A
 Ene=               1
 Spin= Alpha
 Occup=    1.00000
   1    0.00052433874294833
   2    -0.0015742077595972
   3    0.0069150510152095
   4    -0.012970668876999
   5     0.017423575303178
   6    0.00075330037896245
   7    -0.00022749127628863
   8    2.7346200737366e-06
   9    -0.0023929249889438
  10    0.00078793212565012
  11    7.3563325416971e-05
  12    0.0049985855885704
  13    -0.0057739697077381
  14    -0.0033599515539151
  15     0.017489187293629
  16      0.42499721862913
  17      0.62235564764192
  18     -0.09996269096458
  19     -0.44058070365553
  20     0.004266943892686
  21      0.11215447393069
  22        0.166284042632
  23    -0.027774779901197
  24     -0.11685751466509
  25    -0.00022164774804668
  26    0.00024803365943502
  27    0.00012757651554543
  28    -0.00026453535852959
  29    0.00016530259743438
  30    0.00025560183374777
  31    -5.8135177678163e-05
  32    -0.00052850732886716
  33    -0.0035717276578554
  34    0.0066561042800188
  35    0.0051555923695682
  36    -0.009607370873534
  37    -0.0057309330978352
  38     0.021742806114057
  39    -0.016333767697789
  40    -0.0093760002081972
  41       0.0366529537221
  42    -0.023555404676993
  43     -0.02060129821966
  44      0.06556638861572
  45    -0.0013935229035574
  46    0.0021677569258893
  47    -0.0019992964436713
  48    -0.0010744594558303
  49    0.0006263888870892
  50    -0.0006461582712813
  51    -0.004312825243314
  52     0.007279255813092
  53    0.0058259728024219
  54    0.0049741347204619
  55      0.01940427394264
  56    -0.0083143700480219
  57    0.0084432734115322
  58     0.032795956169925
  59    -0.013701468904131
  60     0.011220471305822
  61     0.056068681503905
  62    -0.029327933377366
  63    0.0021983094174061
  64    -0.00028911495967182
  65    -0.0006173590637805
  66    0.0023837859704015
  67    -0.00098812927605108
  68    0.0015114317432442
  69    -0.0043197567064351
  70     0.020978950089776
  71    -0.035017588070423
  72    0.0025155490500048
  73    0.00059066383334999
  74    -0.0027223585051838
  75    -0.0015732340585216
  76    -0.0019350830206635
  77    0.0089092330377081
  78    0.0051638888171768
  79    0.0029702468258501
  80    -0.014619386387054
  81    -0.0081790152903373
  82    0.0024773655584866
  83    0.0001682929625992
  84    -0.004515701417221
  85    0.00040856341816316
  86    0.0012018738469363
  87    0.0035946781771015
  88    -0.0018629990844367
  89    -0.0029549605627946
  90    -0.0037753660194987
  91    7.6630374558907e-05
  92    2.8618482380432e-06
  93    -0.00021011493588279
  94    9.8488627824978e-05
  95    -0.00024439166214526
  96    -0.00022262354739907
  97    0.00016237567321533
  98    -0.00042651565146865
  99    0.00049121632719299
 100    0.0031547881319212
 101    -0.0029928930374339
 102    -0.0087813375717814
 103    -0.0069689311305036
 104    -0.018330138691597
 105    0.0033006512341161
 106    -0.011762249316689
 107    -0.031357058543712
 108    0.0057266798223346
 109    -0.019867643944946
 110    -0.056033282432796
 111    0.0097424155276339
 112    -0.00073361652938339
 113    -0.0014900751368953
 114    -0.0017311648910985
 115    0.0014596923390302
 116    -0.00041651147993286
 117    0.00015241221430236
 118    0.00093271693695574
 119    0.00030165584761553
 120    -0.0044720603833134
 121     0.012751864387378
 122    0.0036275634357033
 123    -0.013256512481191
 124     0.021723529381479
 125    0.0060700621040646
 126    -0.022781130252213
 127     0.039165145738244
 128     0.011802317492658
 129    -0.039798174707212
 130    0.00038970008446627
 131    0.00052115114143904
 132    -0.0011582846250197
 133    -0.00038685623870758
 134    0.0013250094428581
 135    -0.00044984766540762
 136    -0.0029647140118762
 137     0.004549236156495
 138    0.0049440188643346
 139    -0.00041798864602308
 140    0.00051668259535021
 141     0.003064929157092
 142    -0.0011596474193056
 143    0.00097598099691596
 144    0.0055727497023689
 145    0.0021225375217511
 146    0.0019050688669706
 147    0.0091136668965495
 148    0.00012772674018092
 149    0.00074054979529541
 150    -0.00034795931480616
 151    -0.00038110773940084
 152    0.00031658877463555
 153    -0.00037179110674002
 154    -0.002444007741085
 155    0.0037499169159204
 156     0.003834500358231
 157    -0.00025708501305182
 158    0.0028121745368584
 159    -0.00077895194931048
 160    -0.00015695159961729
 161    0.0051772523334079
 162    -0.0013222306307498
 163    -0.0035102750012961
 164    0.0073852120310101
 165    -0.0022631061452672
 166    0.00037085463496052
 167    -9.027139580733e-05
 168    -0.00025444384005303
 169    0.00021291517584532
 170    -0.00061789610453127
 171    -0.00044193970249966
 172    6.0542662906868e-05
 173     0.010389825836071
 174    -0.0013102705720398
 175    -0.00082295019422709
 176    0.0045326152706645
 177    0.0009817469735872
 178    -0.0023335882967058
 179    0.0057441306865019
 180    0.00097717160338487
 181    -2.0415983127504e-05
 182    0.00029399275776751
 183    -0.00050554017088342
 184    -0.00093515068399722
 185    -0.0064141318719721
 186    -0.0071248352750988
 187    6.4942459055614e-05
 188    -0.00010578242612459
 189    -0.00023408171124304
 190    0.0030220324263342
 191    0.0010092471233173
 192    7.5350592721251e-05
 193    -3.2345446254168e-05
 194    0.00020167943238624
 195    0.0033088667889157
 196    -0.0081322006067148
 197    -0.00010170768716357
 198    0.00021875371064472
 199    -0.00029955646476908
 200    -0.001764160390052
 201    0.0037380440759033
 202    0.0060158445097694
 203    0.0065519997923689
 204    0.0035239797051009
 205    -0.0034049146208422
 206    0.0048396486811952
 207    0.0049910507985491
 208    -0.0020454609811949
 209    -0.00019072621919539
 210    0.00034231845655742
 211    -0.00049789245738097
 212    -0.00023185503153093
 213    -0.0014412571178311
 214    -0.0059308960289467
 215    -0.0024148995798152
 216    0.00031233955692164
 217    -0.00033275021302286
 218    -0.00037131407340609
 219    -0.0020126745038476
 220    -0.0025937328345607
 221      8.9140502617e-05
 222    0.00018978825631424
 223    1.3750278193574e-05
 224    0.0059443481916185
 225    -0.0035617468044491
 226    2.9168180325768e-05
 227    -0.00033611399505788
 228    0.00041574219854518
 229    0.00063218474581894
 230    -0.0006252946886199
 231    -0.0086147161160618
 232    -0.001188511641007