[Molden Format]
made by pyscf v[2.2.1]
[Atoms] (AU)
Fe   1   26     3.17068844873907     0.00098706064664     0.12237737881307
O   2   8     0.00000000000000     0.00000000000000    -0.89004350580623
Fe   3   26    -3.17068844873907    -0.00098706064664     0.12237737881307
Cl   4   17     3.53383895113107    -2.07485195383062     3.76228752659000
Cl   5   17     5.54152580550813    -1.85590924879884    -2.78672786652360
Cl   6   17     4.48169216485503     3.92976278472880    -0.95330240907949
Cl   7   17    -3.53383895113107     2.07485195383062     3.76228752659000
Cl   8   17    -5.54152580550813     1.85590924879884    -2.78672786652360
Cl   9   17    -4.48169216485503    -3.92976278472880    -0.95330240907949
[GTO]
1 0
 s    8 1.00
          300784.84637  0.00024103305017787
          45088.970557  0.0018687382457119
          10262.516317  0.0097155134617046
          2905.2897293   0.039479967013317
          946.11487137    0.12842162832271
          339.87832894    0.30457860754832
          131.94425588    0.43465553776779
          52.111494077    0.22742382379948
 s    4 1.00
          329.48839267  -0.024716645792921
          101.92332739   -0.11669599822835
          16.240462745    0.55229779440271
          6.8840675801    0.53539752037712
 s    2 1.00
          10.470693782   -0.37745869768095
          1.7360039648     1.1722622909796
 s    1 1.00
         0.72577288979                   1
 s    1 1.00
         0.11595528203                   1
 s    1 1.00
        0.041968227746                   1
 p    6 1.00
           1585.395997  0.0027395641750272
          375.38006499   0.022167496552173
          120.31816501    0.10364840341367
          44.788749031    0.29703230666936
          17.829278584    0.47773374381763
          7.2247153786    0.27871749884095
 p    3 1.00
          28.143219756  -0.020268742366329
          3.8743241412    0.38603381535444
          1.5410752281    0.67538247288481
 p    1 1.00
          0.5828561525                   1
 p    1 1.00
              0.134915                   1
 d    4 1.00
          61.996675034   0.019497333982305
          17.873732552    0.11922868100386
          6.2744782934    0.37625274789341
          2.3552337175    0.64997843079553
 d    1 1.00
         0.85432239901                   1
 d    1 1.00
         0.27869254413                   1
 d    1 1.00
                 0.091                   1
 f    1 1.00
                 1.598                   1

2 0
 s    6 1.00
          27032.382631  0.00057227335211155
          4052.3871392  0.0044353233492995
           922.3272271   0.023020107706038
          261.24070989   0.092822490667928
          85.354641351    0.29378500009671
          31.035035245    0.67401604501641
 s    2 1.00
          12.260860728    0.63839937025506
          4.9987076005    0.39534587125718
 s    1 1.00
          1.1703108158                   1
 s    1 1.00
         0.46474740994                   1
 s    1 1.00
         0.18504536357                   1
 p    4 1.00
          63.274954801   0.012018332222616
          14.627049379   0.083005421790056
          4.4501223456    0.31991743925964
          1.5275799647    0.70715542916104
 p    1 1.00
         0.52935117943                   1
 p    1 1.00
          0.1747842127                   1
 d    1 1.00
                 2.314                   1
 d    1 1.00
                 0.645                   1
 f    1 1.00
                 1.428                   1

3 0
 s    8 1.00
          300784.84637  0.00024103305017787
          45088.970557  0.0018687382457119
          10262.516317  0.0097155134617046
          2905.2897293   0.039479967013317
          946.11487137    0.12842162832271
          339.87832894    0.30457860754832
          131.94425588    0.43465553776779
          52.111494077    0.22742382379948
 s    4 1.00
          329.48839267  -0.024716645792921
          101.92332739   -0.11669599822835
          16.240462745    0.55229779440271
          6.8840675801    0.53539752037712
 s    2 1.00
          10.470693782   -0.37745869768095
          1.7360039648     1.1722622909796
 s    1 1.00
         0.72577288979                   1
 s    1 1.00
         0.11595528203                   1
 s    1 1.00
        0.041968227746                   1
 p    6 1.00
           1585.395997  0.0027395641750272
          375.38006499   0.022167496552173
          120.31816501    0.10364840341367
          44.788749031    0.29703230666936
          17.829278584    0.47773374381763
          7.2247153786    0.27871749884095
 p    3 1.00
          28.143219756  -0.020268742366329
          3.8743241412    0.38603381535444
          1.5410752281    0.67538247288481
 p    1 1.00
          0.5828561525                   1
 p    1 1.00
              0.134915                   1
 d    4 1.00
          61.996675034   0.019497333982305
          17.873732552    0.11922868100386
          6.2744782934    0.37625274789341
          2.3552337175    0.64997843079553
 d    1 1.00
         0.85432239901                   1
 d    1 1.00
         0.27869254413                   1
 d    1 1.00
                 0.091                   1
 f    1 1.00
                 1.598                   1

4 0
 s    7 1.00
          69507.990945  0.00051457389646325
           10426.15688  0.0039781344806745
          2373.2334061   0.020456178670619
          671.56420071   0.080148102887582
           218.4199979    0.23454770317658
          77.572249714    0.44543368582255
          28.888815277    0.35466842499038
 s    3 1.00
          127.10527185    0.11293688054705
          39.339582961     0.4837351421006
          7.6740679989     -1.229229738981
 s    2 1.00
           3.874562763    0.67296821635762
          1.8385832573    0.34956051409054
 s    1 1.00
         0.50229057542                   1
 s    1 1.00
          0.1796272342                   1
 p    5 1.00
          666.50423284  0.0033502508198275
           157.6424169   0.026763970407523
          50.262520978      0.123626823608
          18.536078105    0.35845787918981
          7.2940532777    0.61677296353714
 p    1 1.00
          2.9433248995                   1
 p    1 1.00
          1.0404970818                   1
 p    1 1.00
          0.3845641508                   1
 p    1 1.00
         0.13069642732                   1
 d    2 1.00
                  4.61    0.18265835045336
                 1.011    0.91329175226681
 d    1 1.00
                 0.339                   1
 f    1 1.00
                 0.706                   1

5 0
 s    7 1.00
          69507.990945  0.00051457389646325
           10426.15688  0.0039781344806745
          2373.2334061   0.020456178670619
          671.56420071   0.080148102887582
           218.4199979    0.23454770317658
          77.572249714    0.44543368582255
          28.888815277    0.35466842499038
 s    3 1.00
          127.10527185    0.11293688054705
          39.339582961     0.4837351421006
          7.6740679989     -1.229229738981
 s    2 1.00
           3.874562763    0.67296821635762
          1.8385832573    0.34956051409054
 s    1 1.00
         0.50229057542                   1
 s    1 1.00
          0.1796272342                   1
 p    5 1.00
          666.50423284  0.0033502508198275
           157.6424169   0.026763970407523
          50.262520978      0.123626823608
          18.536078105    0.35845787918981
          7.2940532777    0.61677296353714
 p    1 1.00
          2.9433248995                   1
 p    1 1.00
          1.0404970818                   1
 p    1 1.00
          0.3845641508                   1
 p    1 1.00
         0.13069642732                   1
 d    2 1.00
                  4.61    0.18265835045336
                 1.011    0.91329175226681
 d    1 1.00
                 0.339                   1
 f    1 1.00
                 0.706                   1

6 0
 s    7 1.00
          69507.990945  0.00051457389646325
           10426.15688  0.0039781344806745
          2373.2334061   0.020456178670619
          671.56420071   0.080148102887582
           218.4199979    0.23454770317658
          77.572249714    0.44543368582255
          28.888815277    0.35466842499038
 s    3 1.00
          127.10527185    0.11293688054705
          39.339582961     0.4837351421006
          7.6740679989     -1.229229738981
 s    2 1.00
           3.874562763    0.67296821635762
          1.8385832573    0.34956051409054
 s    1 1.00
         0.50229057542                   1
 s    1 1.00
          0.1796272342                   1
 p    5 1.00
          666.50423284  0.0033502508198275
           157.6424169   0.026763970407523
          50.262520978      0.123626823608
          18.536078105    0.35845787918981
          7.2940532777    0.61677296353714
 p    1 1.00
          2.9433248995                   1
 p    1 1.00
          1.0404970818                   1
 p    1 1.00
          0.3845641508                   1
 p    1 1.00
         0.13069642732                   1
 d    2 1.00
                  4.61    0.18265835045336
                 1.011    0.91329175226681
 d    1 1.00
                 0.339                   1
 f    1 1.00
                 0.706                   1

7 0
 s    7 1.00
          69507.990945  0.00051457389646325
           10426.15688  0.0039781344806745
          2373.2334061   0.020456178670619
          671.56420071   0.080148102887582
           218.4199979    0.23454770317658
          77.572249714    0.44543368582255
          28.888815277    0.35466842499038
 s    3 1.00
          127.10527185    0.11293688054705
          39.339582961     0.4837351421006
          7.6740679989     -1.229229738981
 s    2 1.00
           3.874562763    0.67296821635762
          1.8385832573    0.34956051409054
 s    1 1.00
         0.50229057542                   1
 s    1 1.00
          0.1796272342                   1
 p    5 1.00
          666.50423284  0.0033502508198275
           157.6424169   0.026763970407523
          50.262520978      0.123626823608
          18.536078105    0.35845787918981
          7.2940532777    0.61677296353714
 p    1 1.00
          2.9433248995                   1
 p    1 1.00
          1.0404970818                   1
 p    1 1.00
          0.3845641508                   1
 p    1 1.00
         0.13069642732                   1
 d    2 1.00
                  4.61    0.18265835045336
                 1.011    0.91329175226681
 d    1 1.00
                 0.339                   1
 f    1 1.00
                 0.706                   1

8 0
 s    7 1.00
          69507.990945  0.00051457389646325
           10426.15688  0.0039781344806745
          2373.2334061   0.020456178670619
          671.56420071   0.080148102887582
           218.4199979    0.23454770317658
          77.572249714    0.44543368582255
          28.888815277    0.35466842499038
 s    3 1.00
          127.10527185    0.11293688054705
          39.339582961     0.4837351421006
          7.6740679989     -1.229229738981
 s    2 1.00
           3.874562763    0.67296821635762
          1.8385832573    0.34956051409054
 s    1 1.00
         0.50229057542                   1
 s    1 1.00
          0.1796272342                   1
 p    5 1.00
          666.50423284  0.0033502508198275
           157.6424169   0.026763970407523
          50.262520978      0.123626823608
          18.536078105    0.35845787918981
          7.2940532777    0.61677296353714
 p    1 1.00
          2.9433248995                   1
 p    1 1.00
          1.0404970818                   1
 p    1 1.00
          0.3845641508                   1
 p    1 1.00
         0.13069642732                   1
 d    2 1.00
                  4.61    0.18265835045336
                 1.011    0.91329175226681
 d    1 1.00
                 0.339                   1
 f    1 1.00
                 0.706                   1

9 0
 s    7 1.00
          69507.990945  0.00051457389646325
           10426.15688  0.0039781344806745
          2373.2334061   0.020456178670619
          671.56420071   0.080148102887582
           218.4199979    0.23454770317658
          77.572249714    0.44543368582255
          28.888815277    0.35466842499038
 s    3 1.00
          127.10527185    0.11293688054705
          39.339582961     0.4837351421006
          7.6740679989     -1.229229738981
 s    2 1.00
           3.874562763    0.67296821635762
          1.8385832573    0.34956051409054
 s    1 1.00
         0.50229057542                   1
 s    1 1.00
          0.1796272342                   1
 p    5 1.00
          666.50423284  0.0033502508198275
           157.6424169   0.026763970407523
          50.262520978      0.123626823608
          18.536078105    0.35845787918981
          7.2940532777    0.61677296353714
 p    1 1.00
          2.9433248995                   1
 p    1 1.00
          1.0404970818                   1
 p    1 1.00
          0.3845641508                   1
 p    1 1.00
         0.13069642732                   1
 d    2 1.00
                  4.61    0.18265835045336
                 1.011    0.91329175226681
 d    1 1.00
                 0.339                   1
 f    1 1.00
                 0.706                   1

[5d]
[7f]
[9g]

[MO]
 Sym= A
 Ene=               0
 Spin= Alpha
 Occup=    1.00000
   1    -0.041008434162818
   2    -0.011098506174172
   3     -0.58998836342901
   4     -0.40954461394347
   5    -0.028096461416256
   6     0.006873373853851
   7    0.00070840468380926
   8    0.00015578542137133
   9    0.00058704793119322
  10    -0.00096325167138102
  11    -0.000429591247226
  12    -0.0011946061386776
  13    -0.0032066693940433
  14    1.0541540533676e-06
  15    -0.001597585632223
  16    -0.0051182951271638
  17    -0.00038103669248633
  18    -0.0004722357803843
  19    -0.0026081934187528
  20     0.002897199232411
  21    0.00085289298824889
  22    0.0046812363323312
  23    0.00012476420369785
  24    -0.0022169843110818
  25    0.0023855648032727
  26    0.00055799750922246
  27    0.0038835785239656
  28    0.00011876597994004
  29    -0.0012082295631385
  30    0.0017890427775028
  31    0.0007426542066932
  32    0.0025304024308442
  33    2.0449993952144e-05
  34    -0.00037971384029694
  35    -0.00021679493160256
  36    0.00010245098662479
  37    0.00016983966075058
  38    -0.00021189307577337
  39    3.7232269524832e-05
  40    6.4687590058049e-05
  41    0.00010644574047108
  42    -0.00010086595595784
  43    -2.1907983095617e-05
  44    -0.00014637878157448
  45    3.2484154364256e-05
  46    0.0020855643327966
  47    0.0050640294214155
  48    -0.0063163579446264
  49    -0.012540586681086
  50    -0.0029542526885375
  51    0.0054309967399296
  52    9.3229202419433e-06
  53    0.0020420078430518
  54    0.0046506915937684
  55    2.0080632837655e-05
  56    0.0014550806496587
  57    0.0054276394613089
  58    4.852537632985e-05
  59    0.0015784853446059
  60    6.9426702836747e-05
  61    -4.8784187049767e-05
  62    7.1847286846688e-06
  63    -0.00012670994756857
  64    -1.2331396727835e-05
  65    0.00060553452787399
  66    -2.8572027503396e-05
  67    -1.5176163761705e-05
  68    -0.0011046601702742
  69    3.6045711356547e-05
  70    7.3841893142873e-05
  71    -2.93459960607e-05
  72    -3.459170770346e-08
  73    -9.5742237340022e-05
  74    -2.6050761101092e-06
  75    1.8788224478047e-05
  76    9.7536050649162e-07
  77    5.2267118039246e-05
  78    0.00059326994608584
  79    0.0019218004233685
  80    0.0012106909136262
  81    -0.0022240828468733
  82    -0.0011405244770797
  83    0.00092359215634636
  84    3.9169094299014e-06
  85    -0.00043430112805843
  86    -0.0022158563834792
  87    -1.1206795151758e-05
  88    0.0010085392799126
  89    -0.0013574591436437
  90    2.2747213971439e-06
  91    0.00054729968353105
  92    -0.000773826796879
  93    -2.015082423233e-05
  94    0.00081545852366351
  95    0.00048580342225775
  96    0.0017628694760806
  97    1.9267979022256e-05
  98    -0.0016218035597312
  99    1.2457824964233e-05
 100    0.0004056517950903
 101    0.0014554056952895
 102    -8.0188971022629e-06
 103    -0.0013435620411235
 104    2.065515440478e-06
 105    0.00015901915504554
 106    0.00063349405516464
 107    9.6921890779654e-05
 108    -0.00062948232103259
 109    3.3446714728253e-05
 110    -0.00015348913093207
 111    0.00054919518108148
 112    -0.00013807507926199
 113    0.00058661487994097
 114    9.6964927855121e-06
 115    -6.0169258590579e-05
 116    1.8028079218544e-05
 117    1.8659081789025e-06
 118    8.5650209001592e-05
 119    2.2117491648442e-06
 120    -7.794649205323e-05
 121    8.1414793855614e-07
 122    -0.00092111113345489
 123    -0.00075500213399175
 124    0.0051743336633749
 125    -0.0057672683261188
 126    -0.0051442198754549
 127    -0.00066923213877699
 128    0.0037291905165809
 129    -0.0061202612995655
 130    -0.00033944224297658
 131    0.0018277966055336
 132    -0.0029949189785574
 133    0.00082094185494859
 134    -0.0041733693339762
 135    0.0068293964658496
 136    0.0018399526238536
 137     -0.01072860304975
 138     0.017680819063667
 139    0.0015240757050186
 140    -0.0060989641579872
 141    0.0095981973704754
 142    -0.00050904347940786
 143    -2.1003825407443e-05
 144    0.00056030023064117
 145    0.00018760104102073
 146    1.8797163458587e-05
 147    -0.0014607277376052
 148    -0.00017749995785891
 149    0.0019689150668157
 150    0.00064427063184766
 151    0.00011907365745389
 152    0.0002623519636888
 153    0.00010151522677628
 154    -0.0007518178424759
 155    -0.00039342413524728
 156    -0.00010175603516557
 157    -3.6032469206671e-05
 158    9.6405186525783e-05
 159    -0.00089305081163961
 160    -0.0007163391303873
 161    0.0050195109192819
 162    -0.0058169256521873
 163    -0.0041816193863173
 164    -0.003988657506384
 165    0.0028524039785469
 166    0.0048456424818469
 167    -0.0019724154605239
 168    0.0014045686156251
 169    0.0023773581275473
 170    0.0045317516930312
 171    -0.0031870712469947
 172    -0.0053944889377857
 173     0.011371288913448
 174    -0.0082019020656408
 175    -0.013939019471174
 176    0.0064695169509698
 177    -0.0038768245534143
 178    -0.0074494875850515
 179    -0.00021192669924152
 180    0.0005157886836941
 181    -0.00044945155144146
 182    1.756848453862e-05
 183    0.00034983975148661
 184    -0.00075125884101371
 185    0.0016789634977733
 186    -0.0012761308220183
 187    -0.00031741287415638
 188    0.00091296579377855
 189    0.00015953420425025
 190    0.00046937923000187
 191    -0.00037086977408283
 192    -0.0001556300776914
 193    0.00060303280870767
 194    -9.8036375957585e-05
 195    -0.00023351472667374
 196    -0.00080341948613639
 197    -0.00064905877316666
 198    0.0045078322252269
 199    -0.0052296514145278
 200    -0.0036971302199939
 201    -0.0020901994818851
 202    -0.0059146079775691
 203    0.0020626478997085
 204    -0.0010399872645001
 205    -0.0029131010254216
 206     0.001021724495662
 207    0.0024378656110141
 208    0.0066721055496696
 209    -0.0023538690983539
 210    0.0058241541562959
 211     0.016797075799071
 212    -0.0057767696191078
 213    0.0038368076781806
 214    0.0088575979399766
 215    -0.0038342286583242
 216    0.00027084094633798
 217    7.0783585456619e-05
 218    0.00025385756175185
 219    0.00055345733464625
 220    -0.00025063498817582
 221    0.00064644674182228
 222    0.00035704075447219
 223    0.0011760622548726
 224    0.0013171323630443
 225    -0.00090153414399903
 226    0.00029363314753392
 227    -7.9038646179811e-05
 228    -0.00025555939526246
 229    0.00033379637068948
 230    -0.00023646144726839
 231    -0.00044773410673495
 232    -0.00034098868696063
 233    2.1948950507837e-05
 234    2.1017088034527e-05
 235    -0.00013015807807442
 236    0.00017223607470652
 237    0.00036735957028912
 238    -9.1959122456745e-05
 239    1.602897398459e-05
 240    3.8412832761907e-05
 241    -3.6504734495039e-05
 242    2.2183883260651e-05
 243    3.4521535637032e-05
 244    7.3414998088959e-05
 245    -6.6556850184869e-05
 246    -9.9816383840569e-05
 247    0.00040656591121429
 248    3.0133604012073e-05
 249    -2.3098027875154e-05
 250    -0.00035723571868653
 251    -0.00011412342859305
 252    -0.00033661740026963
 253    -1.9087108727774e-05
 254    -1.8450600545401e-05
 255    6.8311032206958e-06
 256    1.7479000840928e-05
 257    -1.9486929692561e-05
 258    5.1562747671415e-05
 259    7.2924379794454e-05
 260    -4.6148916530968e-05
 261    -7.7358683373778e-05
 262    5.9409969040137e-05
 263    -4.0050077505774e-06
 264    2.489261722591e-06
 265    8.2757509037264e-06
 266    1.3829942815687e-06
 267    -6.8050957667411e-07
 268    7.0299104435531e-07
 269    3.5771894053367e-06
 270    1.782150075695e-05
 271    2.1313945598848e-05
 272    -0.00010719545506381
 273    6.9629597507247e-05
 274    0.00044750272615505
 275    6.2208573375566e-05
 276    7.195050510922e-06
 277    -5.4859261759946e-05
 278    3.7405965789344e-05
 279    -2.7649182519116e-06
 280    -2.1316440564218e-05
 281    -8.4014143675087e-05
 282    9.2992993782969e-06
 283    4.9493998722916e-05
 284    -0.00013738602131319
 285    -6.6860606742003e-05
 286    0.00017737673754027
 287    0.00025410811018275
 288    3.202929345276e-05
 289    0.00020776330746106
 290    2.4988487873309e-05
 291    -3.4235601875114e-05
 292    -1.7706576255182e-05
 293    -4.4650497914331e-05
 294    3.5625103149076e-05
 295    3.399307105876e-05
 296    7.4037689235936e-05
 297    3.2737421930802e-05
 298    3.9780719169558e-06
 299    -3.0073542372724e-05
 300    4.059916991001e-06
 301    1.3472573928645e-05
 302    -4.840090522366e-06
 303    -8.8133162520166e-07
 304    -6.8969349326317e-06
 305    -8.2732733320054e-06
 306    1.6815402766505e-06
 307    1.5245309538764e-05
 308    1.9870390602173e-05
 309    -9.1444204707159e-05
 310    3.1466257010695e-05
 311    0.00070423146797118
 312    8.1982154856765e-06
 313    2.6251124348614e-06
 314    -3.9486267299513e-05
 315    1.7839340668041e-05
 316    1.9001947816201e-06
 317    -2.2210755577839e-05
 318    -4.8199078712809e-05
 319    4.1658214418782e-06
 320    5.3890463944281e-05
 321    8.8587155718016e-05
 322    -4.0788858182043e-06
 323    9.4503364602244e-05
 324    8.7128041509921e-05
 325    0.00026962276272989
 326    0.00013920618575532
 327    1.8591803520791e-06
 328    1.4958819954692e-05
 329    9.8364549915148e-06
 330    4.9478691508584e-07
 331    -5.4521082912257e-05
 332    6.5390323774923e-05
 333    -1.1884747521281e-05
 334    1.0534927388457e-05
 335    -3.0557023942017e-05
 336    1.7701327848127e-05
 337    2.031424560873e-06
 338    3.2514985749751e-06
 339    7.7461183201669e-06
 340    -3.6653651942892e-06
 341    -1.437514284233e-06
 342    7.4863261744979e-07
 343    -8.7430349076685e-06
 Sym= A
 Ene=               1
 Spin= Alpha
 Occup=    1.00000
   1    -0.0028020600578256
   2    0.0066851097100433
   3    -0.026156190534587
   4    -0.0014775065699518
   5    -0.0046002924178681
   6    0.0078463050247015
   7    -0.030458752380555
   8    -0.0025259365149079
   9     -0.01002733078788
  10     0.088547753124268
  11    0.0074388672078973
  12     0.029208713961307
  13    -0.012622694345795
  14    -0.0011505613814175
  15    -0.0039071066472672
  16    -0.033691805735267
  17    -0.0076204143354825
  18     -0.01070002239038
  19      0.25228115167911
  20      -0.2203688777241
  21     -0.13529516534038
  22     -0.52537193442646
  23     0.072644207020494
  24      0.15798814895454
  25     -0.13754192855833
  26    -0.084900738717714
  27     -0.32897522046865
  28     0.045675609285658
  29      0.06088060598078
  30    -0.056984408957201
  31    -0.028611636375907
  32     -0.12723337841661
  33      0.01497366302288
  34    -0.0020429305434626
  35    -0.0058055091618822
  36    0.00083428719772123
  37    0.0051935108401937
  38    -0.0013436363042548
  39    0.0015419072785532
  40    0.0014601083498346
  41    0.00055202958009611
  42    -0.002720462864359
  43    -9.4383690424417e-05
  44    -0.002890892982334
  45     0.000429372617295
  46    -0.0095512539482766
  47    -0.023085312523919
  48     0.031151083540535
  49     0.057681579473255
  50     0.087910871718656
  51     0.087103494117312
  52    0.0068052911610803
  53     0.039981637895712
  54      0.10546493825238
  55    0.0067195442552522
  56      0.04530968676435
  57      0.10769770337492
  58    0.0079770914246117
  59     0.055789020603985
  60    0.0011851154726107
  61    -0.0016479885186065
  62    -7.3150052690126e-05
  63    -0.0027744350013057
  64    -0.00010709700604896
  65     0.001663893016506
  66     0.003154947981187
  67    0.00024066678978273
  68    0.0012682888342695
  69    -0.0001456921421701
  70    1.2085372886477e-05
  71    -0.0009952591846524
  72    -1.9561778376357e-05
  73    3.2261072845286e-05
  74    -0.00011340272010134
  75    0.00095555370456152
  76    5.4438117521795e-05
  77    0.0018890838134869
  78    -0.0057044745985997
  79     0.015619120533491
  80     0.013040605273687
  81    -0.025274307580477
  82    -0.0047653242219734
  83    -0.0061714010239826
  84    0.00014850359933787
  85    0.0048577561155228
  86     0.018070876260152
  87    -0.00040395182810473
  88     -0.01419916441234
  89    0.00041912517667887
  90    -0.00013657266296476
  91      0.00102745226185
  92    -0.018713660138884
  93    0.00070101132559383
  94    0.0044127420407836
  95    0.0026789905620689
  96     0.002732944985563
  97    7.9720464833739e-05
  98    -0.0052058492849367
  99    -1.9636103257052e-05
 100    0.0020154279118216
 101     0.004559298623716
 102    0.00022579169657684
 103    -0.0053211676216134
 104    0.00021328604752984
 105    0.0001348476488979
 106    0.0045136107114613
 107    -0.00089296034835225
 108    -0.0025940121145465
 109    -4.1356456283699e-05
 110    0.0063455247774793
 111    -0.0039450842721439
 112    -0.00072877571133435
 113    -0.0025247746943208
 114    -0.0012167186986601
 115    -0.00055659439540099
 116    -0.00045435459351187
 117    7.7628478391487e-05
 118    0.00095605583555294
 119    -5.4134170818586e-06
 120    -0.00026100148756439
 121    0.00014003191334391
 122    -0.0029957984167961
 123    -0.0026657127795445
 124     0.017753815832875
 125    -0.022399920936269
 126    -0.029977851463574
 127    -0.016389831731276
 128    0.0055556958098132
 129    -0.019444620673736
 130    -0.0084427446058354
 131     0.002769773693406
 132    -0.0098848913375659
 133      0.02161648753041
 134    -0.0068458894701299
 135      0.02494867779918
 136     0.044871701618323
 137    -0.017453049272518
 138     0.056943756234908
 139     0.042868497417275
 140    -0.015532780125781
 141     0.051020661246796
 142    0.0018172890374641
 143    0.0027736591407264
 144    -0.0010097926586865
 145    5.7396810184585e-05
 146    -0.0016303746739533
 147    -0.00043623739974428
 148    0.0013648629864879
 149    0.0021473760822749
 150    0.00052422711990508
 151    -0.0005983972935996
 152    -0.00063805631307681
 153    -0.00071430219170019
 154    0.0006772388172593
 155     0.000253054812035
 156    0.00068854621633449
 157    0.00023034074479734
 158    -7.0798019159194e-05
 159    -0.00027391131504796
 160    -0.00027357331883999
 161    0.0015922120876784
 162    -0.0010344093012737
 163    -0.0065783919406981
 164    -0.015048954669231
 165    -0.0013935927458018
 166    -0.0078957044340191
 167    -0.0077392719528775
 168    -0.00073964140052862
 169    -0.0041170197836168
 170     0.019671268941502
 171    0.0019556366173768
 172     0.010594495955522
 173     0.041365832865229
 174    0.0033616283937877
 175     0.020678445573526
 176      0.03773312699948
 177    0.0032154498724725
 178      0.01916353120562
 179    -0.0019202142478008
 180    -0.0010408219404025
 181    -0.00094287773178251
 182    0.0014931620670735
 183    -0.00093343459664348
 184    -0.0011607916268643
 185    -0.00023714296219722
 186    -0.0011624492958478
 187    0.00059048194997744
 188    -0.0003020413502028
 189    -0.00045413584813168
 190    0.00010639711178951
 191    -0.00048727838749272
 192    0.00038052037480159
 193    -0.00014776847420626
 194    4.8158293746552e-05
 195    0.00026823514799101
 196    -0.0031440381995587
 197    -0.0028078271801836
 198     0.018595880192736
 199    -0.023131009914487
 200    -0.030913169845081
 201    -0.017588722488822
 202    -0.018842071020001
 203    -0.0011153110171278
 204    -0.009053681656953
 205    -0.0095739485261688
 206    -0.00066685051967519
 207     0.023026366327033
 208     0.023974963956239
 209    0.0019786466370656
 210      0.04858353029784
 211     0.055085006485524
 212    0.0013694708279546
 213     0.045105954823842
 214     0.050384457800726
 215    0.0029394328127845
 216    -0.0014309288091694
 217    -0.00056013812883445
 218    0.00046213540360798
 219    -0.00054534989606509
 220    0.0027462054548624
 221    0.0007202646493864
 222    0.00030599949819096
 223     0.002213400509819
 224     0.002076422877893
 225    8.8410674046992e-05
 226    -1.0573365332006e-05
 227    0.00020221267580143
 228    0.00044314796801208
 229    7.5454935520305e-05
 230    0.0002481226184075
 231    0.00073258772552984
 232    0.00010786350611255
 233    3.9409799589493e-05
 234    5.4255035234365e-05
 235    -0.0002195214068006
 236    -0.00024840419321062
 237    0.00082668674208428
 238    0.0012965223156594
 239    0.00042717133501661
 240    0.00041565893795093
 241    0.00068275126936539
 242    0.00015886302224953
 243    0.00017218218707912
 244    -0.0017020711466266
 245    -0.00030811975814219
 246    -0.0003965135462465
 247    -0.0034003555136683
 248    -0.0016230267121425
 249    -0.0011719958631652
 250    -0.00075652001263673
 251    0.00024979105878987
 252    -0.0030315745932169