[Molden Format]
made by pyscf v[2.2.1]
[Atoms] (AU)
Fe   1   26    10.35569916261654     2.17318504324982   -15.17450078025744
S   2   16     7.65339080448850    -1.15273293598469   -16.53510358994429
S   3   16    14.15404867299231     0.79368497231733   -17.08312416606816
Fe   4   26    11.41394579237297    -2.30546587196938   -18.19806257956155
S   5   16    10.33680190137089     2.36215765570633   -10.54467177507304
S   6   16     8.74943195673624     6.19830168857340   -16.57289811243559
S   7   16    10.86592521624911    -2.83458918684759   -22.77119980100900
S   8   16    12.96352121451632    -6.44396608476686   -16.74297346364645
C   9   6    10.41239094635349     8.40928125431453   -14.19184319548361
H   10   1    12.26432254842725     9.12737718164925   -14.96663090655529
H   11   1     9.20296622663185    10.07224024393178   -13.70051440309670
H   12   1    10.80923343251215     7.25654831832984   -12.45329516088376
C   13   6     6.80301404843422     3.21253441176060   -10.46908273009044
H   14   1     5.68807563494084     1.51178089965205   -10.99820604496866
H   15   1     6.19830168857340     3.89283581660403    -8.54156208303408
H   16   1     6.46286334601251     4.68652078892135   -11.92417184600554
C   17   6     9.84547310898397    -7.97464424566456   -17.87680913838549
H   18   1     9.63760323528181    -7.57780175950590   -19.93661061416140
H   19   1     9.84547310898397   -10.05334298268613   -17.49886391347247
H   20   1     8.25810316434932    -7.02978118338203   -16.87525429236600
C   21   6    14.41861033043142    -3.49599333044536   -23.13024776467636
H   22   1    14.92883638406399    -3.89283581660403   -25.15225471796098
H   23   1    15.49575422143351    -1.81413707958246   -22.41215183734163
H   24   1    14.90993912281834    -5.14005505881697   -21.90192578370907
[GTO]
1 0
 s    6 1.00
          60923.640643  0.0017552243692958
          9147.8893982   0.013449023284001
          2081.3505927   0.066678874640978
          587.55977067    0.23176348548844
           191.0904399    0.46945550248188
          65.732730112     0.3596824938678
 s    3 1.00
          127.25891928   -0.10723431835929
           14.83091301    0.62971616328466
          6.0653307408    0.44472317896179
 s    3 1.00
           10.44994371   -0.21694289195548
          1.7245228003    0.69457867408393
         0.71772177325    0.43298308896347
 s    1 1.00
        0.091449828308                   1
 s    1 1.00
        0.033706691021                   1
 p    5 1.00
          773.43750995  0.0091440529992506
          182.15149714   0.067887577136571
          57.547272758    0.26167978878504
          20.614988935    0.51088040113251
           7.634855789    0.33235475570224
 p    3 1.00
           3.871932799    0.33193859098144
          1.4924724132     0.5553666555499
         0.56061284958    0.23106034201617
 p    1 1.00
              0.134915                   1
 d    4 1.00
          38.968133419   0.033335938558743
          10.800067078    0.17766212505983
          3.6136457999      0.441281781625
          1.2129967888    0.57089200490673
 d    1 1.00
          0.3652439317                   1
 f    1 1.00
                 1.598                   1

2 0
 s    5 1.00
           9184.930301  -0.0054729466134731
          1381.5105503  -0.040954402155135
           313.8714758   -0.18475828956188
          88.053870623   -0.47567280643953
          27.039914905   -0.43495153584169
 s    3 1.00
          45.648731303  -0.091904045808942
          4.9664522326    0.55698777214497
          2.0116242047     0.5111546829846
 s    1 1.00
         0.35661077013                   1
 s    1 1.00
         0.13507221477                   1
 p    5 1.00
          261.98233439  -0.009183054659266
          61.306894736   -0.06590222652599
          19.103729887   -0.24587784518735
          6.6567720378    -0.4823147107602
          2.3959635161   -0.38956314351423
 p    1 1.00
         0.61776161679                   1
 p    1 1.00
         0.16993376871                   1
 d    1 1.00
                  0.55                   1

3 0
 s    5 1.00
           9184.930301  -0.0054729466134731
          1381.5105503  -0.040954402155135
           313.8714758   -0.18475828956188
          88.053870623   -0.47567280643953
          27.039914905   -0.43495153584169
 s    3 1.00
          45.648731303  -0.091904045808942
          4.9664522326    0.55698777214497
          2.0116242047     0.5111546829846
 s    1 1.00
         0.35661077013                   1
 s    1 1.00
         0.13507221477                   1
 p    5 1.00
          261.98233439  -0.009183054659266
          61.306894736   -0.06590222652599
          19.103729887   -0.24587784518735
          6.6567720378    -0.4823147107602
          2.3959635161   -0.38956314351423
 p    1 1.00
         0.61776161679                   1
 p    1 1.00
         0.16993376871                   1
 d    1 1.00
                  0.55                   1

4 0
 s    6 1.00
          60923.640643  0.0017552243692958
          9147.8893982   0.013449023284001
          2081.3505927   0.066678874640978
          587.55977067    0.23176348548844
           191.0904399    0.46945550248188
          65.732730112     0.3596824938678
 s    3 1.00
          127.25891928   -0.10723431835929
           14.83091301    0.62971616328466
          6.0653307408    0.44472317896179
 s    3 1.00
           10.44994371   -0.21694289195548
          1.7245228003    0.69457867408393
         0.71772177325    0.43298308896347
 s    1 1.00
        0.091449828308                   1
 s    1 1.00
        0.033706691021                   1
 p    5 1.00
          773.43750995  0.0091440529992506
          182.15149714   0.067887577136571
          57.547272758    0.26167978878504
          20.614988935    0.51088040113251
           7.634855789    0.33235475570224
 p    3 1.00
           3.871932799    0.33193859098144
          1.4924724132     0.5553666555499
         0.56061284958    0.23106034201617
 p    1 1.00
              0.134915                   1
 d    4 1.00
          38.968133419   0.033335938558743
          10.800067078    0.17766212505983
          3.6136457999      0.441281781625
          1.2129967888    0.57089200490673
 d    1 1.00
          0.3652439317                   1
 f    1 1.00
                 1.598                   1

5 0
 s    5 1.00
           9184.930301  -0.0054729466134731
          1381.5105503  -0.040954402155135
           313.8714758   -0.18475828956188
          88.053870623   -0.47567280643953
          27.039914905   -0.43495153584169
 s    3 1.00
          45.648731303  -0.091904045808942
          4.9664522326    0.55698777214497
          2.0116242047     0.5111546829846
 s    1 1.00
         0.35661077013                   1
 s    1 1.00
         0.13507221477                   1
 p    5 1.00
          261.98233439  -0.009183054659266
          61.306894736   -0.06590222652599
          19.103729887   -0.24587784518735
          6.6567720378    -0.4823147107602
          2.3959635161   -0.38956314351423
 p    1 1.00
         0.61776161679                   1
 p    1 1.00
         0.16993376871                   1
 d    1 1.00
                  0.55                   1

6 0
 s    5 1.00
           9184.930301  -0.0054729466134731
          1381.5105503  -0.040954402155135
           313.8714758   -0.18475828956188
          88.053870623   -0.47567280643953
          27.039914905   -0.43495153584169
 s    3 1.00
          45.648731303  -0.091904045808942
          4.9664522326    0.55698777214497
          2.0116242047     0.5111546829846
 s    1 1.00
         0.35661077013                   1
 s    1 1.00
         0.13507221477                   1
 p    5 1.00
          261.98233439  -0.009183054659266
          61.306894736   -0.06590222652599
          19.103729887   -0.24587784518735
          6.6567720378    -0.4823147107602
          2.3959635161   -0.38956314351423
 p    1 1.00
         0.61776161679                   1
 p    1 1.00
         0.16993376871                   1
 d    1 1.00
                  0.55                   1

7 0
 s    5 1.00
           9184.930301  -0.0054729466134731
          1381.5105503  -0.040954402155135
           313.8714758   -0.18475828956188
          88.053870623   -0.47567280643953
          27.039914905   -0.43495153584169
 s    3 1.00
          45.648731303  -0.091904045808942
          4.9664522326    0.55698777214497
          2.0116242047     0.5111546829846
 s    1 1.00
         0.35661077013                   1
 s    1 1.00
         0.13507221477                   1
 p    5 1.00
          261.98233439  -0.009183054659266
          61.306894736   -0.06590222652599
          19.103729887   -0.24587784518735
          6.6567720378    -0.4823147107602
          2.3959635161   -0.38956314351423
 p    1 1.00
         0.61776161679                   1
 p    1 1.00
         0.16993376871                   1
 d    1 1.00
                  0.55                   1

8 0
 s    5 1.00
           9184.930301  -0.0054729466134731
          1381.5105503  -0.040954402155135
           313.8714758   -0.18475828956188
          88.053870623   -0.47567280643953
          27.039914905   -0.43495153584169
 s    3 1.00
          45.648731303  -0.091904045808942
          4.9664522326    0.55698777214497
          2.0116242047     0.5111546829846
 s    1 1.00
         0.35661077013                   1
 s    1 1.00
         0.13507221477                   1
 p    5 1.00
          261.98233439  -0.009183054659266
          61.306894736   -0.06590222652599
          19.103729887   -0.24587784518735
          6.6567720378    -0.4823147107602
          2.3959635161   -0.38956314351423
 p    1 1.00
         0.61776161679                   1
 p    1 1.00
         0.16993376871                   1
 d    1 1.00
                  0.55                   1

9 0
 s    5 1.00
          1238.4016938  0.0055173650481097
          186.29004992   0.041088828555946
          42.251176346     0.1822538212649
          11.676557932    0.46828459437429
          3.5930506482    0.44575817336002
 s    1 1.00
         0.40245147363                   1
 s    1 1.00
         0.13090182668                   1
 p    3 1.00
          9.4680970621   0.056888332011037
          2.0103545142    0.31294059336471
         0.54771004707    0.76065016509135
 p    1 1.00
         0.15268613795                   1
 d    1 1.00
                   0.8                   1

10 0
 s    3 1.00
             13.010701   0.033485484812989
             1.9622572    0.23472187088125
            0.44453796    0.81377028525955
 s    1 1.00
            0.12194962                   1
 p    1 1.00
                   0.8                   1

11 0
 s    3 1.00
             13.010701   0.033485484812989
             1.9622572    0.23472187088125
            0.44453796    0.81377028525955
 s    1 1.00
            0.12194962                   1
 p    1 1.00
                   0.8                   1

12 0
 s    3 1.00
             13.010701   0.033485484812989
             1.9622572    0.23472187088125
            0.44453796    0.81377028525955
 s    1 1.00
            0.12194962                   1
 p    1 1.00
                   0.8                   1

13 0
 s    5 1.00
          1238.4016938  0.0055173650481097
          186.29004992   0.041088828555946
          42.251176346     0.1822538212649
          11.676557932    0.46828459437429
          3.5930506482    0.44575817336002
 s    1 1.00
         0.40245147363                   1
 s    1 1.00
         0.13090182668                   1
 p    3 1.00
          9.4680970621   0.056888332011037
          2.0103545142    0.31294059336471
         0.54771004707    0.76065016509135
 p    1 1.00
         0.15268613795                   1
 d    1 1.00
                   0.8                   1

14 0
 s    3 1.00
             13.010701   0.033485484812989
             1.9622572    0.23472187088125
            0.44453796    0.81377028525955
 s    1 1.00
            0.12194962                   1
 p    1 1.00
                   0.8                   1

15 0
 s    3 1.00
             13.010701   0.033485484812989
             1.9622572    0.23472187088125
            0.44453796    0.81377028525955
 s    1 1.00
            0.12194962                   1
 p    1 1.00
                   0.8                   1

16 0
 s    3 1.00
             13.010701   0.033485484812989
             1.9622572    0.23472187088125
            0.44453796    0.81377028525955
 s    1 1.00
            0.12194962                   1
 p    1 1.00
                   0.8                   1

17 0
 s    5 1.00
          1238.4016938  0.0055173650481097
          186.29004992   0.041088828555946
          42.251176346     0.1822538212649
          11.676557932    0.46828459437429
          3.5930506482    0.44575817336002
 s    1 1.00
         0.40245147363                   1
 s    1 1.00
         0.13090182668                   1
 p    3 1.00
          9.4680970621   0.056888332011037
          2.0103545142    0.31294059336471
         0.54771004707    0.76065016509135
 p    1 1.00
         0.15268613795                   1
 d    1 1.00
                   0.8                   1

18 0
 s    3 1.00
             13.010701   0.033485484812989
             1.9622572    0.23472187088125
            0.44453796    0.81377028525955
 s    1 1.00
            0.12194962                   1
 p    1 1.00
                   0.8                   1

19 0
 s    3 1.00
             13.010701   0.033485484812989
             1.9622572    0.23472187088125
            0.44453796    0.81377028525955
 s    1 1.00
            0.12194962                   1
 p    1 1.00
                   0.8                   1

20 0
 s    3 1.00
             13.010701   0.033485484812989
             1.9622572    0.23472187088125
            0.44453796    0.81377028525955
 s    1 1.00
            0.12194962                   1
 p    1 1.00
                   0.8                   1

21 0
 s    5 1.00
          1238.4016938  0.0055173650481097
          186.29004992   0.041088828555946
          42.251176346     0.1822538212649
          11.676557932    0.46828459437429
          3.5930506482    0.44575817336002
 s    1 1.00
         0.40245147363                   1
 s    1 1.00
         0.13090182668                   1
 p    3 1.00
          9.4680970621   0.056888332011037
          2.0103545142    0.31294059336471
         0.54771004707    0.76065016509135
 p    1 1.00
         0.15268613795                   1
 d    1 1.00
                   0.8                   1

22 0
 s    3 1.00
             13.010701   0.033485484812989
             1.9622572    0.23472187088125
            0.44453796    0.81377028525955
 s    1 1.00
            0.12194962                   1
 p    1 1.00
                   0.8                   1

23 0
 s    3 1.00
             13.010701   0.033485484812989
             1.9622572    0.23472187088125
            0.44453796    0.81377028525955
 s    1 1.00
            0.12194962                   1
 p    1 1.00
                   0.8                   1

24 0
 s    3 1.00
             13.010701   0.033485484812989
             1.9622572    0.23472187088125
            0.44453796    0.81377028525955
 s    1 1.00
            0.12194962                   1
 p    1 1.00
                   0.8                   1

[5d]
[7f]
[9g]

[MO]
 Sym= A
 Ene=               0
 Spin= Alpha
 Occup=    1.00000
   1    0.00071388315950224
   2    -0.0021286112296404
   3    0.0094737356903595
   4    -0.017033095053975
   5     0.011011350863308
   6    -0.00076361005734399
   7    0.0017142031347897
   8    0.0013934907393382
   9    0.0023755970161074
  10    -0.0053020324293934
  11    -0.0043505508456149
  12    -0.0036350670740414
  13    0.0062815297125852
  14     0.006467633387748
  15     0.010357711478901
  16     -0.60898844290865
  17      0.30142386708432
  18     -0.54687532359126
  19      0.10548847000781
  20    0.0021216546677993
  21     -0.16387912500892
  22     0.082909959805546
  23      -0.1474899339699
  24     0.027635908662694
  25    2.1685008992199e-05
  26    -0.00030024296395653
  27    -0.00010898254052949
  28    -0.00017667113277367
  29    -0.00029874703569977
  30    -0.00017194676386262
  31    -0.0003578123083623
  32    -0.00039939503780751
  33    -0.0027347556401346
  34    0.0054440961404343
  35     0.005618572543015
  36    -0.017429681744346
  37     0.012136227742308
  38    -0.011292262452572
  39    -0.029515534337649
  40     0.020654536019277
  41    -0.018919391315631
  42    -0.045945655625728
  43     0.035417443310123
  44     -0.03706763304361
  45    0.0023904902832182
  46    0.00056005962274452
  47    -0.00030859755105867
  48    0.00016314035712678
  49    0.0022733437807625
  50    -0.0003513376533596
  51    -0.0024293869770875
  52    0.0052386281007423
  53    0.0053222239656407
  54     0.015435665662512
  55    0.00021220411750805
  56     0.017473445864804
  57     0.026076132035343
  58    0.00052834738054551
  59     0.029578338712746
  60     0.041411651630839
  61    -0.0040497079404975
  62     0.052007913642773
  63    -0.0010810508594218
  64    -0.00098246121243291
  65    -0.0024477075937594
  66    -0.00018720835156623
  67    -0.0015163367122467
  68    0.0015033354960536
  69    -0.0042994737215218
  70     0.020850878334868
  71     -0.03799229645234
  72     0.014021351387031
  73    0.00058855266791765
  74    -0.0024663100343053
  75    -0.0017179826331775
  76    -0.0019267691459555
  77     0.008060503215177
  78    0.0056154645135055
  79    0.0031132565645656
  80      -0.0118287931911
  81    -0.0085341726702747
  82    0.00036165468461952
  83     0.002931038272419
  84    -0.0035784280843815
  85    0.0027999306423758
  86    -7.7794033023145e-05
  87    0.0014908611846864
  88    0.0048714484371029
  89    -0.00043809729513601
  90    -1.4936511626015e-06
  91    -0.0033630345076289
  92    -5.4490298816751e-05
  93    0.00020041837373839
  94    0.00017787258710095
  95    -0.00035187490805301
  96    -2.7692394955229e-05
  97    0.00034394136599114
  98    -0.00010117738024348
  99    -0.00062856990273934
 100    -0.004158775007127
 101    0.0068036397898342
 102    0.0054849485829724
 103     0.004499589792134
 104    -0.0074328920758051
 105    0.0017213628727389
 106    0.0079423582707333
 107    -0.013006979921884
 108    0.0026730721371478
 109    0.0081690679777102
 110    -0.019955137819767
 111    0.0071765853932111
 112     0.001469361695667
 113    0.0026062028926276
 114    -0.001349417928183
 115    -0.002214706150876
 116    0.0014130161597101
 117    -0.00088238332845024
 118    -0.0058011242782656
 119    0.0084815206033216
 120    0.0091855212824094
 121    -0.0061066176708517
 122    -0.0018138280594995
 123     -0.00455435834002
 124    -0.010516437433137
 125    -0.0035171042451065
 126    -0.0079884190224376
 127     -0.01590485441205
 128    -0.0010426439832254
 129    -0.010238403737127
 130    0.0010887644800462
 131    -0.00056544606890055
 132    -0.0035268421007772
 133    0.0025548537831606
 134    -0.0026686741946164
 135    -0.00020310161427282
 136    -0.0013642999564349
 137    0.0031886034417244
 138    -0.0021193418990002
 139    0.00060388319889584
 140    0.0012143340190355
 141    0.0025988224593303
 142    0.0014190706028656
 143    0.0021721719769698
 144    0.0044608984980524
 145    -0.00023374238601706
 146    0.0036355589891958
 147    0.0082481408456569
 148    -9.4805537278344e-06
 149    -0.00022198863504416
 150    -0.00027322719325808
 151    0.00023611956614116
 152    -0.00020956789929434
 153    -0.00022543893321528
 154    -0.0015144765811414
 155    0.0034422816400517
 156    -0.0018405297884648
 157    -0.0014242242968935
 158    0.0026646466687166
 159    -6.6372392550656e-05
 160    -0.0027867310292262
 161    0.0045386670552633
 162    -9.3532078253763e-05
 163    -0.002732240411451
 164     0.008821217025556
 165    -0.0001029944981258
 166    6.7834822327774e-05
 167    0.0001933976044335
 168    -0.00019513089347978
 169    1.8885814033957e-05
 170    0.00038614175386817
 171    0.0033870575366871
 172    -0.0079350675770754
 173    -0.0045310334723608
 174    0.0071470665250042
 175     0.012312949934495
 176    0.0097685267024314
 177     0.006586688916973
 178    0.0054137178092714
 179    0.0083882583150734
 180    -0.0003936822259542
 181    -0.00060213923958691
 182    -0.00072611661403409
 183    0.00012039523542733
 184    -0.00047690795431655
 185    0.0036452951152464
 186    0.0019051586784714
 187    -8.6914082213329e-05
 188    0.00045289198526891
 189    0.00030718917739508
 190    0.0041941377124713
 191    0.0031485262535641
 192    0.00037262621071823
 193    9.1243827216949e-05
 194    5.6637699066526e-05
 195    -0.0006155077187713
 196    -0.0022791978150178
 197    8.9554186810086e-05
 198    -0.00013358508195203
 199    6.4056653702092e-05
 200    0.0031193506831304
 201    -0.0066486888726846
 202    -0.007368782747375
 203    -0.013760552697141
 204    0.0031721293979985
 205    0.0032628368579405
 206    -0.0097218125990276
 207    0.00042510886152923
 208    0.00047385828975758
 209    0.00080407552431838
 210    -0.00034365977964012
 211    0.00019167132521675
 212    -0.00081374466217551
 213    -5.7415589544048e-05
 214    -0.0001576370025168
 215    -0.0020748010233344
 216    -0.00028156998353078
 217    4.6023495351163e-05
 218    0.00011971865916136
 219    0.0055080517158338
 220    0.0041809966157586
 221    -0.0002571665430981
 222    1.5159820388085e-05
 223    -0.00014329084069249
 224    0.00073821269273826
 225    0.0039975812849286
 226    -3.007696379599e-05
 227    -2.4096681116181e-05
 228    -9.0034710950958e-05
 229    -0.00064938675237675
 230    0.00078073833500934
 231    0.0099195735853189
 232    -0.00044352385150342
 233      0.00145438077382
 234    0.0011915387687258
 235    -0.0023041802352704
 236    0.00077520174227605
 237    0.0015310532519243
 238    -2.9080930667265e-05
 239    -2.3153571929485e-05
 240    6.7171159986373e-05
 241    -1.9631128247115e-06
 242    0.00013548080635017
 243    -0.00027996546737543
 244    -0.003225313095754
 245    4.5205227247706e-05
 246    9.6348766062725e-05
 247    -2.9328886074225e-05
 248    -0.0005380326944663
 249    -0.0020386535256291
 250    -3.4890182689096e-05
 251    -5.6381254281732e-05
 252    3.3038053884087e-05
 253    0.00070131716719528
 254    -0.0082205157929595
 255    -0.00011184757606311
 256    -0.00024570055415644
 257    2.1842974588435e-05
 258    -0.00057004082829914
 259    0.00065924477094418
 260    0.0092639982973115
 261    -0.00036920244014527
 262    0.0014346261723303
 263    0.00075353780586264
 264    0.0012090607913879
 265    0.0018424845856683
 266    0.00022261591274821
 267    -5.447614581637e-05
 268    -0.0001376042807024
 269     2.76474091582e-05
 270    4.6315026487543e-05
 271    -4.1339071727796e-05
 272    -0.0004084601406411
 273    -0.0019210977774557
 274    4.6051173277623e-05
 275    1.2774217937568e-05
 276    -6.4260811037818e-05
 277    0.00055039325945977
 278    -0.0073205653176026
 279    0.00015539335189831
 280    -6.8196421882987e-06
 281    -0.00015870351983247
 282    -0.00026285524379858
 283    -0.0032400252031543
 284    -5.8490034977764e-05
 285    -6.1800507696605e-06
 286    9.7303238971213e-05
 Sym= A
 Ene=               1
 Spin= Alpha
 Occup=    1.00000
   1    -0.00057686006405532
   2    0.0017310199334381
   3    -0.0076107191704368
   4     0.014341045856821
   5    -0.018759388513241
   6    -0.00074671982664445
   7    9.4634462292584e-05
   8    -7.4613029769798e-05
   9    0.0023756096759449
  10    -0.00037957300308838
  11    0.00014872392984419
  12    -0.0051135643699315
  13    0.0053687583077627
  14    0.0030903666373342
  15    -0.020567375888253
  16     -0.37847563912023
  17     -0.64814268852772
  18      0.14602135825928
  19      0.43160866163307
  20    -0.0050208113669124
  21    -0.099453936977391
  22     -0.17324014573838
  23     0.040210018410555
  24      0.11441835960635
  25    0.00022247361877056
  26    -0.00023004427975059
  27    -0.0001199477679816
  28    0.00028404217132098
  29    -0.00014753780305477
  30    -0.00024691852451957
  31    8.6841300209941e-05
  32    0.00057043710418399
  33    0.0038647640989413
  34    -0.0073072776147969
  35    -0.0057504672474201
  36     0.011193344673341
  37     0.005413814564222
  38    -0.022012269342447
  39     0.019013613228958
  40    0.0088303953807642
  41    -0.037168945756984
  42     0.027109091401653
  43     0.018906127876123
  44    -0.064275593704993
  45    0.0012014177833652
  46    -0.0023229953857722
  47    0.0020028147042996
  48    0.0010574030868114
  49    -0.0007527319055832
  50    0.00070786543680917
  51      0.00473365963483
  52    -0.0080874839660781
  53    -0.0065690461410688
  54    -0.006076454593441
  55    -0.020597224978098
  56    0.0075362932295845
  57    -0.010312375285288
  58    -0.034952697267843
  59     0.012485616387629
  60    -0.013645275034503
  61    -0.056745119421666
  62     0.026049038193815
  63    -0.0021129720088228
  64    0.00031895962504925
  65    0.00078571505299076
  66    -0.0024253745892919
  67    0.0012089754499804
  68    -0.0016557502198209
  69    0.0047237248270194
  70     -0.02301650626142
  71     0.039099743849794
  72    -0.0034216624076737
  73    -0.00065445319313187
  74    0.0029063607296164
  75    0.0016962583557421
  76    0.0021420451277656
  77    -0.0095110977718872
  78    -0.0055663982896502
  79    -0.0032038009818624
  80     0.016029482608306
  81    0.0090870621550064
  82    -0.001950792682636
  83    0.00014480355371231
  84    0.0045709259110888
  85    -0.0010713753273782
  86    -0.0016903902134872
  87    -0.0036756980595913
  88     0.001748540503436
  89     0.003039699365821
  90     0.003765555343673
  91    1.1950031765259e-05
  92    1.9952214965666e-06
  93    0.00020301465538987
  94    -0.00011297888055567
  95    0.00027412850474464
  96    0.00022998918889639
  97    -0.00018716657280954
  98    0.00044674069509237
  99    -0.00045612158979159
 100    -0.0029197634893215
 101    0.0025532954585467
 102    0.0085541975545835
 103    0.0068619331505876
 104     0.019687918758622
 105    -0.0036541228743733
 106     0.011652736558245
 107     0.033955067028898
 108    -0.0062689610021326
 109     0.019422826822309
 110     0.058181310599772
 111    -0.010771147624217
 112    0.00063707500616709
 113    0.0012808679241074
 114    0.0018041536907403
 115    -0.0013110389599362
 116    0.00028680028889098
 117    -7.9995103733443e-05
 118    -0.00045584468517217
 119    -0.0010034683991841
 120    0.0037169863177078
 121    -0.012738088679124
 122    -0.0035438195685491
 123     0.014029855368426
 124    -0.021893746847695
 125    -0.0058773806061686
 126     0.024290201306334
 127    -0.038139086973118
 128    -0.011758626753345
 129     0.040611100233205
 130    -0.00044859180354588
 131    -0.00048478476511095
 132    0.0014224440284469
 133    0.00015355935815755
 134    -0.0010826749504929
 135    0.00048398430199503
 136    0.0031952394034628
 137     -0.00501448140433
 138    -0.0050516833135702
 139    0.00031456779420536
 140    -0.00081652856379773
 141    -0.0035833318635973
 142    0.00098041468056095
 143    -0.0014666192640436
 144    -0.0063833437143844
 145    -0.0023385387528122
 146    -0.0025626329182196
 147    -0.010408200801745
 148    -0.00015020576788235
 149    -0.00076274554226165
 150    0.00036839193638073
 151    0.00036614744730588
 152    -0.00031894934415325
 153    0.00040677617678042
 154    0.0026805377410204
 155    -0.004230589264491
 156    -0.0039385737143603
 157    0.00051221314954533
 158    -0.0032670371726588
 159    0.00071409079105774
 160    0.00057059958217354
 161    -0.0058986911464718
 162    0.0012179960140422
 163    0.0040833582036908
 164    -0.0085873058469543
 165    0.0021936957334821
 166    -0.00037343799646393
 167    7.5936836029392e-05
 168    0.00028293927310555
 169    -0.00022221094094914
 170    0.00062806551573029
 171    0.0001650643248494
 172    0.00057774039580392
 173    -0.010085444634348
 174    0.00063321750362299
 175    -0.00020454442820946
 176    -0.0052186163746234
 177    -0.0015993755529384
 178    0.0018894880061615
 179    -0.0065027683410775
 180    -0.0009543637672042
 181    7.5755981329291e-05
 182    -0.0002435989279959
 183    0.0004967374478261
 184    0.00098064117486842
 185    0.0060492255992718
 186    0.0069674671493372
 187    -5.030252586931e-05
 188    7.4594465063017e-05
 189    0.00021259476916742
 190    -0.0033394854717429
 191    -0.0012700288096348
 192    -0.00010507705546733
 193    2.1310259623927e-05
 194    -0.00020424885146294
 195    -0.0031422227314211
 196     0.008593290127664
 197    9.001597957321e-05
 198    -0.00021085240790973
 199    0.00028965355664337
 200    0.0015317707079978
 201    -0.0032523995460152
 202    -0.0054260971612083
 203    -0.0054991482295927
 204    -0.0036093388208096
 205    0.0031555338251696
 206    -0.0041565834982466
 207    -0.005018401874098
 208    0.0020855255472909
 209    0.00013474371542295
 210    -0.00032837568978357
 211    0.00048431110976804
 212    0.00030588577078756
 213    0.0014682442541777
 214    0.0058747924064776
 215    0.0024455789306879
 216    -0.0003041735314362
 217    0.00032671449385652
 218    0.00036218728419515
 219    0.0016312094610073
 220    0.0022750937932616
 221    -6.9961433533657e-05
 222    -0.00018765343923864
 223    -3.1808472345501e-06
 224    -0.0059545626050597
 225    0.0033618966711254
 226    -1.5282528349932e-05
 227    0.00033300758636801
 228    -0.00041140970160329
 229    -0.00059014193301469
 230    0.00055565197874954
 231    0.0081952984706607
 232    0.0012922421448067
 233    0.0015037570817522