[Molden Format]
made by pyscf v[2.2.1]
[Atoms] (AU)
Fe   1   26    10.35569916261654     2.17318504324982   -15.17450078025744
S   2   16     7.65339080448850    -1.15273293598469   -16.53510358994429
S   3   16    14.15404867299231     0.79368497231733   -17.08312416606816
Fe   4   26    11.41394579237297    -2.30546587196938   -18.19806257956155
S   5   16    10.33680190137089     2.36215765570633   -10.54467177507304
S   6   16     8.74943195673624     6.19830168857340   -16.57289811243559
S   7   16    10.86592521624911    -2.83458918684759   -22.77119980100900
S   8   16    12.96352121451632    -6.44396608476686   -16.74297346364645
C   9   6    10.41239094635349     8.40928125431453   -14.19184319548361
H   10   1    12.26432254842725     9.12737718164925   -14.96663090655529
H   11   1     9.20296622663185    10.07224024393178   -13.70051440309670
H   12   1    10.80923343251215     7.25654831832984   -12.45329516088376
C   13   6     6.80301404843422     3.21253441176060   -10.46908273009044
H   14   1     5.68807563494084     1.51178089965205   -10.99820604496866
H   15   1     6.19830168857340     3.89283581660403    -8.54156208303408
H   16   1     6.46286334601251     4.68652078892135   -11.92417184600554
C   17   6     9.84547310898397    -7.97464424566456   -17.87680913838549
H   18   1     9.63760323528181    -7.57780175950590   -19.93661061416140
H   19   1     9.84547310898397   -10.05334298268613   -17.49886391347247
H   20   1     8.25810316434932    -7.02978118338203   -16.87525429236600
C   21   6    14.41861033043142    -3.49599333044536   -23.13024776467636
H   22   1    14.92883638406399    -3.89283581660403   -25.15225471796098
H   23   1    15.49575422143351    -1.81413707958246   -22.41215183734163
H   24   1    14.90993912281834    -5.14005505881697   -21.90192578370907
[GTO]
1 0
 s    6 1.00
          60923.640643  0.0017552243692958
          9147.8893982   0.013449023284001
          2081.3505927   0.066678874640978
          587.55977067    0.23176348548844
           191.0904399    0.46945550248188
          65.732730112     0.3596824938678
 s    3 1.00
          127.25891928   -0.10723431835929
           14.83091301    0.62971616328466
          6.0653307408    0.44472317896179
 s    3 1.00
           10.44994371   -0.21694289195548
          1.7245228003    0.69457867408393
         0.71772177325    0.43298308896347
 s    1 1.00
        0.091449828308                   1
 s    1 1.00
        0.033706691021                   1
 p    5 1.00
          773.43750995  0.0091440529992506
          182.15149714   0.067887577136571
          57.547272758    0.26167978878504
          20.614988935    0.51088040113251
           7.634855789    0.33235475570224
 p    3 1.00
           3.871932799    0.33193859098144
          1.4924724132     0.5553666555499
         0.56061284958    0.23106034201617
 p    1 1.00
              0.134915                   1
 d    4 1.00
          38.968133419   0.033335938558743
          10.800067078    0.17766212505983
          3.6136457999      0.441281781625
          1.2129967888    0.57089200490673
 d    1 1.00
          0.3652439317                   1
 f    1 1.00
                 1.598                   1

2 0
 s    5 1.00
           9184.930301  -0.0054729466134731
          1381.5105503  -0.040954402155135
           313.8714758   -0.18475828956188
          88.053870623   -0.47567280643953
          27.039914905   -0.43495153584169
 s    3 1.00
          45.648731303  -0.091904045808942
          4.9664522326    0.55698777214497
          2.0116242047     0.5111546829846
 s    1 1.00
         0.35661077013                   1
 s    1 1.00
         0.13507221477                   1
 p    5 1.00
          261.98233439  -0.009183054659266
          61.306894736   -0.06590222652599
          19.103729887   -0.24587784518735
          6.6567720378    -0.4823147107602
          2.3959635161   -0.38956314351423
 p    1 1.00
         0.61776161679                   1
 p    1 1.00
         0.16993376871                   1
 d    1 1.00
                  0.55                   1

3 0
 s    5 1.00
           9184.930301  -0.0054729466134731
          1381.5105503  -0.040954402155135
           313.8714758   -0.18475828956188
          88.053870623   -0.47567280643953
          27.039914905   -0.43495153584169
 s    3 1.00
          45.648731303  -0.091904045808942
          4.9664522326    0.55698777214497
          2.0116242047     0.5111546829846
 s    1 1.00
         0.35661077013                   1
 s    1 1.00
         0.13507221477                   1
 p    5 1.00
          261.98233439  -0.009183054659266
          61.306894736   -0.06590222652599
          19.103729887   -0.24587784518735
          6.6567720378    -0.4823147107602
          2.3959635161   -0.38956314351423
 p    1 1.00
         0.61776161679                   1
 p    1 1.00
         0.16993376871                   1
 d    1 1.00
                  0.55                   1

4 0
 s    6 1.00
          60923.640643  0.0017552243692958
          9147.8893982   0.013449023284001
          2081.3505927   0.066678874640978
          587.55977067    0.23176348548844
           191.0904399    0.46945550248188
          65.732730112     0.3596824938678
 s    3 1.00
          127.25891928   -0.10723431835929
           14.83091301    0.62971616328466
          6.0653307408    0.44472317896179
 s    3 1.00
           10.44994371   -0.21694289195548
          1.7245228003    0.69457867408393
         0.71772177325    0.43298308896347
 s    1 1.00
        0.091449828308                   1
 s    1 1.00
        0.033706691021                   1
 p    5 1.00
          773.43750995  0.0091440529992506
          182.15149714   0.067887577136571
          57.547272758    0.26167978878504
          20.614988935    0.51088040113251
           7.634855789    0.33235475570224
 p    3 1.00
           3.871932799    0.33193859098144
          1.4924724132     0.5553666555499
         0.56061284958    0.23106034201617
 p    1 1.00
              0.134915                   1
 d    4 1.00
          38.968133419   0.033335938558743
          10.800067078    0.17766212505983
          3.6136457999      0.441281781625
          1.2129967888    0.57089200490673
 d    1 1.00
          0.3652439317                   1
 f    1 1.00
                 1.598                   1

5 0
 s    5 1.00
           9184.930301  -0.0054729466134731
          1381.5105503  -0.040954402155135
           313.8714758   -0.18475828956188
          88.053870623   -0.47567280643953
          27.039914905   -0.43495153584169
 s    3 1.00
          45.648731303  -0.091904045808942
          4.9664522326    0.55698777214497
          2.0116242047     0.5111546829846
 s    1 1.00
         0.35661077013                   1
 s    1 1.00
         0.13507221477                   1
 p    5 1.00
          261.98233439  -0.009183054659266
          61.306894736   -0.06590222652599
          19.103729887   -0.24587784518735
          6.6567720378    -0.4823147107602
          2.3959635161   -0.38956314351423
 p    1 1.00
         0.61776161679                   1
 p    1 1.00
         0.16993376871                   1
 d    1 1.00
                  0.55                   1

6 0
 s    5 1.00
           9184.930301  -0.0054729466134731
          1381.5105503  -0.040954402155135
           313.8714758   -0.18475828956188
          88.053870623   -0.47567280643953
          27.039914905   -0.43495153584169
 s    3 1.00
          45.648731303  -0.091904045808942
          4.9664522326    0.55698777214497
          2.0116242047     0.5111546829846
 s    1 1.00
         0.35661077013                   1
 s    1 1.00
         0.13507221477                   1
 p    5 1.00
          261.98233439  -0.009183054659266
          61.306894736   -0.06590222652599
          19.103729887   -0.24587784518735
          6.6567720378    -0.4823147107602
          2.3959635161   -0.38956314351423
 p    1 1.00
         0.61776161679                   1
 p    1 1.00
         0.16993376871                   1
 d    1 1.00
                  0.55                   1

7 0
 s    5 1.00
           9184.930301  -0.0054729466134731
          1381.5105503  -0.040954402155135
           313.8714758   -0.18475828956188
          88.053870623   -0.47567280643953
          27.039914905   -0.43495153584169
 s    3 1.00
          45.648731303  -0.091904045808942
          4.9664522326    0.55698777214497
          2.0116242047     0.5111546829846
 s    1 1.00
         0.35661077013                   1
 s    1 1.00
         0.13507221477                   1
 p    5 1.00
          261.98233439  -0.009183054659266
          61.306894736   -0.06590222652599
          19.103729887   -0.24587784518735
          6.6567720378    -0.4823147107602
          2.3959635161   -0.38956314351423
 p    1 1.00
         0.61776161679                   1
 p    1 1.00
         0.16993376871                   1
 d    1 1.00
                  0.55                   1

8 0
 s    5 1.00
           9184.930301  -0.0054729466134731
          1381.5105503  -0.040954402155135
           313.8714758   -0.18475828956188
          88.053870623   -0.47567280643953
          27.039914905   -0.43495153584169
 s    3 1.00
          45.648731303  -0.091904045808942
          4.9664522326    0.55698777214497
          2.0116242047     0.5111546829846
 s    1 1.00
         0.35661077013                   1
 s    1 1.00
         0.13507221477                   1
 p    5 1.00
          261.98233439  -0.009183054659266
          61.306894736   -0.06590222652599
          19.103729887   -0.24587784518735
          6.6567720378    -0.4823147107602
          2.3959635161   -0.38956314351423
 p    1 1.00
         0.61776161679                   1
 p    1 1.00
         0.16993376871                   1
 d    1 1.00
                  0.55                   1

9 0
 s    5 1.00
          1238.4016938  0.0055173650481097
          186.29004992   0.041088828555946
          42.251176346     0.1822538212649
          11.676557932    0.46828459437429
          3.5930506482    0.44575817336002
 s    1 1.00
         0.40245147363                   1
 s    1 1.00
         0.13090182668                   1
 p    3 1.00
          9.4680970621   0.056888332011037
          2.0103545142    0.31294059336471
         0.54771004707    0.76065016509135
 p    1 1.00
         0.15268613795                   1
 d    1 1.00
                   0.8                   1

10 0
 s    3 1.00
             13.010701   0.033485484812989
             1.9622572    0.23472187088125
            0.44453796    0.81377028525955
 s    1 1.00
            0.12194962                   1
 p    1 1.00
                   0.8                   1

11 0
 s    3 1.00
             13.010701   0.033485484812989
             1.9622572    0.23472187088125
            0.44453796    0.81377028525955
 s    1 1.00
            0.12194962                   1
 p    1 1.00
                   0.8                   1

12 0
 s    3 1.00
             13.010701   0.033485484812989
             1.9622572    0.23472187088125
            0.44453796    0.81377028525955
 s    1 1.00
            0.12194962                   1
 p    1 1.00
                   0.8                   1

13 0
 s    5 1.00
          1238.4016938  0.0055173650481097
          186.29004992   0.041088828555946
          42.251176346     0.1822538212649
          11.676557932    0.46828459437429
          3.5930506482    0.44575817336002
 s    1 1.00
         0.40245147363                   1
 s    1 1.00
         0.13090182668                   1
 p    3 1.00
          9.4680970621   0.056888332011037
          2.0103545142    0.31294059336471
         0.54771004707    0.76065016509135
 p    1 1.00
         0.15268613795                   1
 d    1 1.00
                   0.8                   1

14 0
 s    3 1.00
             13.010701   0.033485484812989
             1.9622572    0.23472187088125
            0.44453796    0.81377028525955
 s    1 1.00
            0.12194962                   1
 p    1 1.00
                   0.8                   1

15 0
 s    3 1.00
             13.010701   0.033485484812989
             1.9622572    0.23472187088125
            0.44453796    0.81377028525955
 s    1 1.00
            0.12194962                   1
 p    1 1.00
                   0.8                   1

16 0
 s    3 1.00
             13.010701   0.033485484812989
             1.9622572    0.23472187088125
            0.44453796    0.81377028525955
 s    1 1.00
            0.12194962                   1
 p    1 1.00
                   0.8                   1

17 0
 s    5 1.00
          1238.4016938  0.0055173650481097
          186.29004992   0.041088828555946
          42.251176346     0.1822538212649
          11.676557932    0.46828459437429
          3.5930506482    0.44575817336002
 s    1 1.00
         0.40245147363                   1
 s    1 1.00
         0.13090182668                   1
 p    3 1.00
          9.4680970621   0.056888332011037
          2.0103545142    0.31294059336471
         0.54771004707    0.76065016509135
 p    1 1.00
         0.15268613795                   1
 d    1 1.00
                   0.8                   1

18 0
 s    3 1.00
             13.010701   0.033485484812989
             1.9622572    0.23472187088125
            0.44453796    0.81377028525955
 s    1 1.00
            0.12194962                   1
 p    1 1.00
                   0.8                   1

19 0
 s    3 1.00
             13.010701   0.033485484812989
             1.9622572    0.23472187088125
            0.44453796    0.81377028525955
 s    1 1.00
            0.12194962                   1
 p    1 1.00
                   0.8                   1

20 0
 s    3 1.00
             13.010701   0.033485484812989
             1.9622572    0.23472187088125
            0.44453796    0.81377028525955
 s    1 1.00
            0.12194962                   1
 p    1 1.00
                   0.8                   1

21 0
 s    5 1.00
          1238.4016938  0.0055173650481097
          186.29004992   0.041088828555946
          42.251176346     0.1822538212649
          11.676557932    0.46828459437429
          3.5930506482    0.44575817336002
 s    1 1.00
         0.40245147363                   1
 s    1 1.00
         0.13090182668                   1
 p    3 1.00
          9.4680970621   0.056888332011037
          2.0103545142    0.31294059336471
         0.54771004707    0.76065016509135
 p    1 1.00
         0.15268613795                   1
 d    1 1.00
                   0.8                   1

22 0
 s    3 1.00
             13.010701   0.033485484812989
             1.9622572    0.23472187088125
            0.44453796    0.81377028525955
 s    1 1.00
            0.12194962                   1
 p    1 1.00
                   0.8                   1

23 0
 s    3 1.00
             13.010701   0.033485484812989
             1.9622572    0.23472187088125
            0.44453796    0.81377028525955
 s    1 1.00
            0.12194962                   1
 p    1 1.00
                   0.8                   1

24 0
 s    3 1.00
             13.010701   0.033485484812989
             1.9622572    0.23472187088125
            0.44453796    0.81377028525955
 s    1 1.00
            0.12194962                   1
 p    1 1.00
                   0.8                   1

[5d]
[7f]
[9g]

[MO]
 Sym= A
 Ene=               0
 Spin= Alpha
 Occup=    1.00000
   1    0.00071558277365807
   2    -0.0021331423440268
   3     0.009498714767246
   4    -0.017070332104217
   5     0.010896700832781
   6    -0.00076308628715857
   7    0.0017103975864014
   8    0.0013913366090792
   9    0.0023739541713648
  10    -0.0052901458496044
  11    -0.0043438329457364
  12    -0.003633535470402
  13    0.0062746894118213
  14    0.0064653370152182
  15     0.010368321873678
  16     -0.60901303815254
  17      0.30143076138682
  18     -0.54691406728337
  19      0.10548267427497
  20     0.002132759113345
  21      -0.1638968707973
  22     0.082916054414185
  23      -0.1475248647459
  24     0.027628420094138
  25    2.1871141007171e-05
  26    -0.0002995417161589
  27    -0.00010925569137115
  28    -0.0001757744797599
  29    -0.00029792723449454
  30    -0.00017220579125821
  31    -0.00035667168289602
  32    -0.0004021451481727
  33    -0.0027522195797627
  34    0.0054635280313462
  35    0.0056108873103312
  36    -0.017516840704367
  37     0.012149776972146
  38    -0.011345533339169
  39    -0.029344950740909
  40     0.020490835345742
  41    -0.018909829670283
  42     -0.04571086547107
  43     0.035155141315998
  44     -0.03703128153835
  45    0.0023832293613856
  46    0.00055815774081907
  47    -0.00031096129514484
  48    0.00018487727261651
  49    0.0022650089094128
  50    -0.00035380107620357
  51    -0.0024450090477084
  52    0.0052557315274796
  53    0.0053172180261586
  54     0.015526195071582
  55    0.00020734790571247
  56     0.017518581635734
  57     0.025977947103965
  58    0.00042954894488152
  59     0.029415523050048
  60     0.041285441937341
  61    -0.0041788946976527
  62     0.051745009379348
  63    -0.001089670286781
  64    -0.00096942602463721
  65    -0.0024478790157119
  66    -0.00017841618089081
  67    -0.0015011016736558
  68      0.00149587911105
  69    -0.0042785134070473
  70     0.020745917464501
  71    -0.037797428025583
  72     0.014014244883281
  73    0.00057970058226725
  74    -0.0024377697773617
  75    -0.001697853729234
  76    -0.0018984443076242
  77    0.0079688938346428
  78    0.0055509022374844
  79    0.0030631109036986
  80    -0.011664895024663
  81    -0.0084171021765454
  82    0.0010021888669657
  83    0.0033094900601029
  84    -0.0038457629413596
  85    0.0021170701397244
  86    -0.00059555358318839
  87    0.0016441213765662
  88    0.0049470318085485
  89    -0.00049044533181961
  90    -0.00017732195959418
  91    -0.0034845028352593
  92    -5.4629067672363e-05
  93    0.00019977258270405
  94    0.00017707799839218
  95    -0.00035009352583749
  96    -2.7527375278872e-05
  97    0.0003420839725326
  98    -0.00010032165636281
  99    -0.00062960525155473
 100    -0.0041652700443929
 101    0.0068023185210249
 102     0.005539383585179
 103    0.0044983687875377
 104    -0.0074332718564974
 105    0.0017129040525884
 106    0.0079485133641612
 107     -0.01300113586784
 108    0.0026674684934703
 109    0.0081698155969778
 110    -0.019949139107219
 111    0.0071537703642327
 112    0.0014698033458919
 113    0.0026078466125578
 114    -0.0013501915500149
 115    -0.002215956170377
 116    0.0014133970796839
 117    -0.00088393880725822
 118    -0.0058111233381772
 119    0.0084872858946791
 120    0.0092410294261808
 121    -0.0061014107268595
 122    -0.001820255393384
 123    -0.0045513970285739
 124    -0.010523396835837
 125    -0.003529066713203
 126    -0.0079813483131159
 127    -0.015902803388876
 128    -0.0010659188108964
 129    -0.010220697216734
 130       0.0010901456287
 131    -0.00056571020975679
 132    -0.0035288099659834
 133    0.0025559707726558
 134     -0.00267112872284
 135    -0.00019764697178682
 136    -0.0013287859040382
 137    0.0031396981150339
 138    -0.0021655560168119
 139    0.00059430454940288
 140    0.0012080909320522
 141    0.0025597444426188
 142    0.0014187140730628
 143    0.0020986283410199
 144    0.0043713468019651
 145    -0.00024660413894801
 146    0.0035102863325256
 147    0.0080972888817885
 148    -1.5122914322463e-05
 149    -0.00022538307829619
 150    -0.00027157598019545
 151    0.00023795866303882
 152    -0.00021193652473288
 153    -0.00022002523154288
 154    -0.0014792457700523
 155    0.0033936183513085
 156    -0.0018851967496194
 157     -0.00140623525327
 158     0.002632732091204
 159    -5.6244472974632e-05
 160    -0.0027446416611736
 161    0.0044266095120069
 162    -0.00012319509758938
 163    -0.0026486644694352
 164    0.0086358134370214
 165    -0.0001520814724753
 166    6.7724623104889e-05
 167    0.0001935999203961
 168    -0.00018970916555498
 169    2.1081968253855e-05
 170    0.00039070937068617
 171    0.0033890317911687
 172    -0.0079383474693199
 173    -0.0045589686965862
 174    0.0071521858087492
 175     0.012319315703864
 176    0.0097731887515229
 177     0.006590138165593
 178    0.0054148641053128
 179    0.0083936220071548
 180    -0.00039421915614568
 181    -0.00060249385698095
 182    -0.00072643731542308
 183    0.00012035109775652
 184    -0.000476675252934
 185    0.0036496214000693
 186    0.0019193449168432
 187    -8.7327419808271e-05
 188    0.00045319406035643
 189    0.00030748943472865
 190    0.0041960872317843
 191    0.0031575022954941
 192    0.00037311532528786
 193    9.1303505885811e-05
 194    5.6558760823293e-05
 195    -0.00061795697485617
 196    -0.0022596295002896
 197    8.9485478529646e-05
 198    -0.00013391436661296
 199    6.3664143476771e-05
 200    0.0031191718523614
 201    -0.0066463969023186
 202    -0.007388446731319
 203     -0.01376918711704
 204    0.0031695139289523
 205    0.0032600203598853
 206    -0.0097295955653894
 207    0.00042438364635573
 208    0.00047490788570284
 209    0.00080397267010706
 210    -0.00034389367878873
 211    0.00019157556474573
 212    -0.00081393403500309
 213    -5.6872695615557e-05
 214    -0.00015205620237285
 215    -0.0020639352512613
 216    -0.00028146770551468
 217    4.6650846477778e-05
 218    0.00012067329254782
 219    0.0055068968857736
 220    0.0041838696622715
 221    -0.00025749112482037
 222    1.4964457442593e-05
 223    -0.00014340627379449
 224    0.00073961126080747
 225    0.0040152364068255
 226    -2.9605062426966e-05
 227    -2.4444960143078e-05
 228    -9.0193228251951e-05
 229    -0.00065221216924573
 230    0.00078525514389109
 231    0.0099053352615379
 232    -0.00042544807201197
 233    0.0014649981664139
 234    0.0011950516849313
 235    -0.0022739036899891
 236    0.00079268913230654
 237    0.0015358300029432
 238    -2.9515770271326e-05
 239    -2.3147335711728e-05
 240    6.7029607681889e-05
 241    2.472740000823e-06
 242    0.00013344715305133
 243    -0.00028215511451885
 244    -0.0032064475398659
 245    4.518807971175e-05
 246    9.5837582340117e-05
 247    -2.8878688511692e-05
 248    -0.00055442106349727
 249    -0.0020459191727304
 250    -3.3877600237766e-05
 251    -5.5987137066282e-05
 252    3.333636521515e-05
 253    0.00071315861558683
 254    -0.0081863859380877
 255    -0.00011222657470774
 256    -0.00024489105099045
 257    2.1591468741386e-05
 258    -0.0005741878395686
 259    0.00066637677290496
 260    0.0092542235930187
 261    -0.00039114441417831
 262    0.0014379514421904
 263    0.00075990785000112
 264    0.0011741580981136
 265     0.001846929171493
 266    0.00023318702135054
 267    -5.69835573183e-05
 268    -0.00013418193447843
 269    2.7144216793279e-05
 270    4.7910889280319e-05
 271    -3.9108166595364e-05
 272    -0.00042628675645021
 273    -0.0019297503161132
 274    4.4946767688431e-05
 275    1.2940159544054e-05
 276    -6.412436306474e-05
 277    0.0005624897648345
 278    -0.0072890684793699
 279    0.00015556453137432
 280    -6.8699222653395e-06
 281    -0.00015820182946444
 282    -0.00026468689099217
 283    -0.003220386143369
 284    -5.8433145402418e-05
 285    -5.9615255596212e-06
 286    9.6512112788422e-05
 Sym= A
 Ene=               1
 Spin= Alpha
 Occup=    1.00000
   1    -0.00057889226959059
   2    0.0017364468932514
   3    -0.0076405404398405
   4     0.014387304278942
   5    -0.018621212289894
   6    -0.00074719555130832
   7    9.8129276062876e-05
   8    -7.149776734019e-05
   9    0.0023770509395343
  10    -0.00039035065829087
  11    0.00013897173264841
  12    -0.0051141032631679
  13    0.0053675647672867
  14    0.0030987286788982
  15    -0.020586879564048
  16     -0.37849942179287
  17     -0.64816561321796
  18      0.14604768215672
  19      0.43164032411188
  20    -0.0050374157716768
  21    -0.099472345553752
  22     -0.17325825114825
  23     0.040234220666218
  24      0.11444536671591
  25    0.00022197367001676
  26    -0.0002294628381536
  27    -0.00011922188439563
  28    0.00028272766386471
  29    -0.00014772728419624
  30    -0.0002458907013999
  31    8.6354603722878e-05
  32    0.0005734280674596
  33    0.0038836915279617
  34    -0.0073280245986971
  35    -0.0057391337490368
  36      0.01126291103325
  37    0.0054554523339822
  38    -0.022083319601069
  39        0.018869344557
  40    0.0088870803684387
  41    -0.036948362419384
  42     0.026923772633857
  43     0.018982424831758
  44    -0.063932726674926
  45    0.0012074444587966
  46     -0.00230410067485
  47    0.0020106286771849
  48     0.001039086865317
  49    -0.00075065240013695
  50    0.00071056628553525
  51    0.0047508041408997
  52    -0.0081066609631248
  53    -0.0065586036225175
  54    -0.0061358847575574
  55    -0.020661082123976
  56    0.0075735538199987
  57    -0.010256005464844
  58    -0.034725591507485
  59      0.01250004616057
  60    -0.013589837029219
  61    -0.056406919914665
  62     0.026056501978865
  63    -0.0021054384114248
  64    0.00031543844686224
  65    0.00079006323551468
  66    -0.0024277672571695
  67    0.0011847695172477
  68    -0.0016471725529816
  69    0.0046995714559359
  70    -0.022895934089712
  71     0.038894696784507
  72     -0.00345625667247
  73    -0.00064506280491314
  74    0.0028744418698544
  75    0.0016727619851861
  76    0.0021118587747634
  77    -0.009408547327905
  78    -0.0054910260943362
  79    -0.0031500376619503
  80     0.015845205825795
  81    0.0089574086857193
  82    -0.0027353262643277
  83    -0.0001251144016838
  84    0.0050339619492169
  85    -0.00038504333513635
  86    -0.0012534350403501
  87    -0.0038526098558593
  88    0.0016798118473309
  89    0.0031351363707132
  90    0.0039279939342128
  91    0.00012529557332924
  92    2.2430760956868e-06
  93    0.00020207363245479
  94    -0.0001123134980469
  95    0.00027261104562834
  96    0.0002291480792356
  97    -0.0001856266511738
  98    0.00044452760928009
  99    -0.00045492359736978
 100    -0.0029121680260268
 101    0.0025517214878115
 102    0.0085012830651702
 103    0.0068597812574051
 104      0.01968499524406
 105    -0.0036462214820869
 106     0.011656791104611
 107     0.033965152563776
 108    -0.0062543477842982
 109     0.019421484688891
 110     0.058199120069048
 111    -0.010728942339917
 112    0.0006365269653423
 113    0.0012813105010754
 114    0.0018060003856065
 115    -0.0013118147372775
 116    0.00028778029088101
 117    -7.8792482867926e-05
 118    -0.00044816525445963
 119    -0.0010075884256557
 120    0.0036734665441534
 121    -0.012737963997059
 122    -0.0035364673212195
 123     0.014024813922731
 124    -0.021906508652904
 125    -0.0058676773568093
 126     0.024290979139211
 127    -0.038157659328354
 128     -0.01172704263585
 129     0.040616008862889
 130    -0.00044933604252774
 131    -0.00048536074389188
 132    0.0014233426706073
 133    0.0001541848484054
 134    -0.0010824432557258
 135    0.00047746411991303
 136    0.0031529020432375
 137    -0.0049601790996624
 138    -0.0049797422029671
 139    0.00031390484283782
 140    -0.00081133930484736
 141    -0.0035485761458884
 142    0.00099378005325275
 143    -0.0013614825597518
 144    -0.006256360296816
 145    -0.0022866457203762
 146    -0.002384651957256
 147    -0.010197825814301
 148    -0.00014259870186645
 149    -0.00075511396306009
 150    0.00036680372262244
 151    0.00036456342246505
 152    -0.00031491789828913
 153    0.0004013028477376
 154    0.0026449909406502
 155    -0.004184093065008
 156    -0.0038827061109223
 157    0.00050476338815326
 158    -0.0032282891325462
 159    0.00070315660391768
 160    0.00051254786066387
 161    -0.0057874106732125
 162    0.0012749041428782
 163    0.0039648821062892
 164    -0.0084065054299666
 165    0.0022897886375577
 166    -0.00037327943958473
 167    7.5755034088285e-05
 168    0.00027784842544664
 169    -0.00022177106420428
 170    0.0006220422595757
 171    0.00016544753177082
 172    0.00057869338369491
 173    -0.010087921090569
 174    0.00063059410895552
 175    -0.00020563408278816
 176    -0.005219897756391
 177    -0.0016002636603141
 178    0.0018948377939921
 179     -0.00649952273975
 180    -0.00095439813589124
 181    7.5926579427595e-05
 182    -0.00024398434799966
 183    0.00049714616553204
 184    0.00098049659528525
 185    0.0060484246599155
 186     0.006964288824598
 187    -5.0114480406496e-05
 188    7.4348705308657e-05
 189    0.00021237540420904
 190    -0.0033408504505725
 191    -0.0012753873876278
 192    -0.00010554651210131
 193    2.1207240952149e-05
 194    -0.00020445700890685
 195    -0.003140564939956
 196    0.0085782720319462
 197    9.0113785219007e-05
 198    -0.00021078794214638
 199    0.00029018018939002
 200    0.0015360453807085
 201    -0.0032611141951315
 202    -0.0054501377883835
 203    -0.0054956292453016
 204    -0.0036007796337193
 205    0.0031624063870671
 206    -0.0041463035764625
 207    -0.0050058464528095
 208    0.0020806330804087
 209    0.00013547269891655
 210    -0.00032807616088296
 211    0.00048433218987396
 212    0.00030579025584591
 213    0.0014681907217796
 214    0.0058674848598358
 215    0.0024692613901629
 216    -0.00030367315660249
 217    0.00032602892195149
 218    0.0003607594421411
 219    0.0016370962094721
 220    0.0022833985565827
 221    -6.9567088320931e-05
 222    -0.0001876750672416
 223    -3.2830340437849e-06
 224    -0.005956753913371
 225    0.0033444519874296
 226    -1.6016946465977e-05
 227    0.00033384077859661
 228    -0.00041150428545735
 229    -0.00058672028670897
 230    0.0005524576918414
 231     0.008170818326781
 232    0.0012816639827771
 233    0.0014907208022348