[Molden Format]
made by pyscf v[2.0.1]
[Atoms] (AU)
C   1   6    -4.36500278608785     0.96204067275483     0.03008443990308
C   2   6    -1.85686378725888     0.81747662422560    -0.11291113594276
C   3   6    -0.50410334098898    -1.29924340242222     1.09018300126158
C   4   6     2.00921350742131    -1.47916422674206     0.96891927584824
H   5   1    -5.37130084467999     2.51596246498468    -0.85190743421518
H   6   1    -5.47109728131828    -0.50009712160490     0.38429470469155
H   7   1    -0.81910178869273     2.27305706893308    -1.12366894818888
H   8   1    -1.56076260080078    -2.74486499045324     2.09644326533123
H   9   1     3.12881954444237    -0.07135605846358    -0.01948307634427
H   10   1     2.96824951563808    -3.05321160219852     1.86793758234883
[GTO]
1 0
 s    6 1.00
             3047.5249  0.0018347001629433
             457.36951    0.01403730124668
             103.94869   0.068842606114048
             29.210155    0.23218442062076
              9.286663    0.46794134155879
              3.163927    0.36231203217765
 s    3 1.00
             7.8682724   -0.11933240861517
             1.8812885   -0.16085421161283
             0.5442493     1.1434564825515
 s    1 1.00
             0.1687144                   1
 p    3 1.00
             7.8682724   0.068999095584993
             1.8812885    0.31642397975315
             0.5442493    0.74430825237435
 p    1 1.00
             0.1687144                   1
 d    1 1.00
                   0.8                   1

2 0
 s    6 1.00
             3047.5249  0.0018347001629433
             457.36951    0.01403730124668
             103.94869   0.068842606114048
             29.210155    0.23218442062076
              9.286663    0.46794134155879
              3.163927    0.36231203217765
 s    3 1.00
             7.8682724   -0.11933240861517
             1.8812885   -0.16085421161283
             0.5442493     1.1434564825515
 s    1 1.00
             0.1687144                   1
 p    3 1.00
             7.8682724   0.068999095584993
             1.8812885    0.31642397975315
             0.5442493    0.74430825237435
 p    1 1.00
             0.1687144                   1
 d    1 1.00
                   0.8                   1

3 0
 s    6 1.00
             3047.5249  0.0018347001629433
             457.36951    0.01403730124668
             103.94869   0.068842606114048
             29.210155    0.23218442062076
              9.286663    0.46794134155879
              3.163927    0.36231203217765
 s    3 1.00
             7.8682724   -0.11933240861517
             1.8812885   -0.16085421161283
             0.5442493     1.1434564825515
 s    1 1.00
             0.1687144                   1
 p    3 1.00
             7.8682724   0.068999095584993
             1.8812885    0.31642397975315
             0.5442493    0.74430825237435
 p    1 1.00
             0.1687144                   1
 d    1 1.00
                   0.8                   1

4 0
 s    6 1.00
             3047.5249  0.0018347001629433
             457.36951    0.01403730124668
             103.94869   0.068842606114048
             29.210155    0.23218442062076
              9.286663    0.46794134155879
              3.163927    0.36231203217765
 s    3 1.00
             7.8682724   -0.11933240861517
             1.8812885   -0.16085421161283
             0.5442493     1.1434564825515
 s    1 1.00
             0.1687144                   1
 p    3 1.00
             7.8682724   0.068999095584993
             1.8812885    0.31642397975315
             0.5442493    0.74430825237435
 p    1 1.00
             0.1687144                   1
 d    1 1.00
                   0.8                   1

5 0
 s    3 1.00
             18.731137    0.03349459952309
             2.8253937    0.23472694665786
             0.6401217    0.81375731841339
 s    1 1.00
             0.1612778                   1

6 0
 s    3 1.00
             18.731137    0.03349459952309
             2.8253937    0.23472694665786
             0.6401217    0.81375731841339
 s    1 1.00
             0.1612778                   1

7 0
 s    3 1.00
             18.731137    0.03349459952309
             2.8253937    0.23472694665786
             0.6401217    0.81375731841339
 s    1 1.00
             0.1612778                   1

8 0
 s    3 1.00
             18.731137    0.03349459952309
             2.8253937    0.23472694665786
             0.6401217    0.81375731841339
 s    1 1.00
             0.1612778                   1

9 0
 s    3 1.00
             18.731137    0.03349459952309
             2.8253937    0.23472694665786
             0.6401217    0.81375731841339
 s    1 1.00
             0.1612778                   1

10 0
 s    3 1.00
             18.731137    0.03349459952309
             2.8253937    0.23472694665786
             0.6401217    0.81375731841339
 s    1 1.00
             0.1612778                   1

[5d]
[7f]
[9g]

[MO]
 Sym= A
 Ene=               0
 Spin= Alpha
 Occup=    1.00000
   1    -0.0035462644987729
   2     0.009936407117012
   3     0.036358798265081
   4    -0.0013102314500489
   5     0.013623207032328
   6     0.036682797334819
   7    0.00055338274893574
   8    -0.021603736362389
   9    -0.014491526456063
  10    0.0028867691334832
  11    -0.001526477326008
  12    0.00079285844742308
  13    -0.00058640007592543
  14    -0.0035054416419531
  15    0.00036949632076714
  16    -8.7483221201919e-06
  17    -0.0090671071522883
  18    0.0025353545197349
  19    -0.040294454678693
  20    -0.060501739924795
  21    0.0032507834887279
  22    -0.068021606161362
  23     -0.11354592353495
  24     0.014138129746128
  25     0.016272486913605
  26    -0.010376097060423
  27     0.011290174248815
  28    0.0099788897573138
  29    -0.0010462544542377
  30      0.00540324897215
  31     0.020128286943578
  32     0.044019526735106
  33      0.32873832900686
  34      0.51597980489078
  35     0.059839323076683
  36      0.34217916076502
  37      0.55517376680745
  38    -0.0034921059431457
  39    0.0075622646633739
  40    0.00065242840951271
  41    -0.0011232501662387
  42    0.0054565725180982
  43    0.00033384391748595
  44    -0.00027584284050566
  45    -0.0068578787866058
  46    0.0033179187357558
  47    -0.032584290570782
  48    -0.051281601837373
  49    0.0020128153118339
  50     -0.10194340717407
  51     -0.16672261479911
  52    0.00093344339792301
  53    -0.027079635113306
  54    0.0037069882757983
  55    -0.0046452034046266
  56    -0.017439394702482
  57    0.0012123272393381
  58    -0.0038073449182447
  59    -0.0032259751727449
  60     -0.01888972674532
  61     0.001615490319058
  62    -0.0081875382231603
  63    5.1237888578376e-05
  64    -0.010756504161509
  65    -0.00028128646686409
  66     -0.01141323310054
  67    0.0018145936513979
  68    -0.0029599235944249
 Sym= A
 Ene=               1
 Spin= Alpha
 Occup=    1.00000
   1     0.020889250640244
   2     -0.04370991779333
   3     -0.10940008485444
   4      0.01478789992915
   5     -0.20624433324516
   6     -0.53086467912346
   7     0.010883409463051
   8      -0.2315290283552
   9     -0.58637533956686
  10    -9.4090843238534e-05
  11    -0.0018644307066806
  12    0.0019631508399325
  13    0.00095647693772464
  14    0.0011121821188072
  15    -0.0068184571893293
  16     0.021179824165769
  17    0.0059553161699734
  18    -0.028935899673207
  19     0.021767187601032
  20     0.055443417078698
  21    -0.0064793791766878
  22      0.11679743555927
  23      0.16536182591126
  24    -0.00035041202285228
  25     0.030084754724555
  26    -0.0034567373940636
  27    0.0035339868623936
  28    0.0049476782977546
  29    -0.0075063115120587
  30     0.012105450881374
  31     0.081266336985373
  32    -0.019701855529891
  33     0.005423362564412
  34    -0.024549396952268
  35    0.0075136697115269
  36    0.0089689015380342
  37    -0.017571336257379
  38    -0.0033986123709373
  39    -0.0029926064933443
  40    0.0018386113004281
  41    -0.0030528282699088
  42    -0.0025323908861557
  43    0.00097445163703035
  44    -0.00056746699475068
  45    -0.026928814046333
  46       0.0106234984324
  47     0.012278390316172
  48     0.013243632316363
  49     0.024951388830384
  50    -0.014482774569899
  51    -0.022974375298273
  52    0.00015988500951047
  53    -0.00074725547803942
  54    0.00024100540899645
  55    -0.00052015657847214
  56    -0.0008248331015059
  57     0.020951615692819
  58     0.019084655602806
  59     0.019423427457846
  60     0.017112542026623
  61    -0.032532597792944
  62    -0.068326690088179
  63    0.0009909735970065
  64    -0.013967962152445
  65    0.0018931903240438
  66    -0.0090660889976438
  67    0.0013244477589639
  68    0.00084092244859312
 Sym= A
 Ene=               2
 Spin= Alpha
 Occup=    1.00000
   1    -0.00051749815415755
   2    0.0040764035855573
   3    0.0099253836703539
   4     0.002514810170405
   5    0.0072756413770143
   6     0.022514541819107
   7    0.0058444129756005
   8    -0.014991128789372
   9    -0.030177136981027
  10    0.0012312027312562
  11    0.0010162633698692
  12    0.0010044324811478
  13    -0.00010235158079222
  14    0.00031271847962738
  15    0.00083521537041635
  16    -0.0013463915258492
  17    -0.0033887522442055
  18    0.00078915677299585
  19    -0.0056284939779402
  20    -0.026936340683053
  21    0.0088906029490665
  22    0.0046672118754231
  23    -0.0060095761906891
  24    0.0038001298559899
  25     0.003997498074399
  26    -0.0027094714317308
  27     0.003043265361346
  28    0.0031320749718639
  29    -0.0009128173601124
  30    0.0037538384307295
  31       0.0193175146621
  32    0.0077588277256973
  33     0.026436359535419
  34     0.051467145597799
  35     0.025743651249647
  36      0.10111068161311
  37      0.17801411207171
  38    -0.0014142851080496
  39    -0.025428511720263
  40    0.0044685237230109
  41    -0.0056642819593042
  42    -0.014334993455562
  43    -6.6767386920866e-05
  44    0.00034508188578223
  45    -0.0055177772080406
  46    -0.045059484246721
  47     -0.30457827462587
  48     -0.48897581452325
  49    -0.036719591701312
  50     -0.33609277950864
  51     -0.54452465058284
  52    -0.0015633992831153
  53    0.0030501364244161
  54    0.00072943373356488
  55    -3.4483387742646e-05
  56    0.0019755810113505
  57    -0.0040434525109188
  58    -0.010760038072684
  59    0.0019120928268778
  60    0.0062249609358757
  61    0.0037355776890438
  62    -0.0096084699942848
  63    0.0027392221543041
  64    -0.0073936395371676
  65    -0.00062437207152818
  66    -0.011652159690615
  67    -0.0020101208697558
  68    -0.0056053399689863
 Sym= A
 Ene=               3
 Spin= Alpha
 Occup=    1.00000
   1    0.0031345566654884
   2    -0.0063805571605322
   3    -0.068826158228025
   4    -0.012830407833893
   5    -0.041594239262887
   6    -0.046541382079269
   7    -0.0063327810675567
   8    -0.070931699340016
   9     -0.16715700094696
  10    -0.0045704405359857
  11     0.025369063294281
  12    -0.0039597272811468
  13    0.0047025275797242
  14     0.024170764116397
  15    -0.0022487532434371
  16    0.0061709351593207
  17     0.019410755113183
  18     0.051262016365161
  19      0.33549908914208
  20      0.51069327467709
  21     0.038455097910333
  22      0.36418445200527
  23      0.53678232659211
  24      0.00277450041622
  25    -0.0073173690500611
  26    -0.00041487285921221
  27    -0.00097115546683993
  28    -0.0069596130845031
  29    -0.00015599562381213
  30    -0.0032730563013634
  31     0.027412729810431
  32    -0.0052845068797526
  33    -0.035299141157518
  34     -0.05543718488306
  35    -0.0073988139248671
  36    -0.067547802504919
  37     -0.12475598798988
  38    -0.013289752386737
  39     -0.01596270935801
  40    0.0095280759541648
  41    -0.010919223971813
  42    -0.0079554962101876
  43    0.00022313567161248
  44    -3.5595129186577e-05
  45    -0.010040985869916
  46    0.0034446394181718
  47     0.019564269009116
  48     0.029625726718983
  49     0.006863243774448
  50    -0.0048235685167821
  51    -0.007776554027773
  52    -0.0011275674063146
  53    0.0022451513083904
  54    0.00024186444292099
  55    -0.00026895005632526
  56    0.0017252699333793
  57    -0.012434355086924
  58    -0.014331279726091
  59     0.048371731501189
  60     0.072983589596381
  61    0.0025470767376673
  62    -0.019870353250177
  63    0.0013292985348232
  64    0.0020848422522329
  65    0.00027432027819516
  66    -0.0029316960286976
  67    0.00010946957395162
  68    0.0015961916666226
