10
	Energy:       1.2048269
C         -2.30986        0.50909        0.01592
C         -0.98261        0.43259       -0.05975
C         -0.26676       -0.68753        0.57690
C          1.06323       -0.78274        0.51273
H         -2.84237        1.33139       -0.45081
H         -2.89518       -0.26464        0.20336
H         -0.43345        1.20285       -0.59462
H         -0.82592       -1.45252        1.10939
H          1.65570       -0.03776       -0.01031
H          1.57073       -1.61569        0.98847
