[Molden Format]
made by pyscf v[2.2.1]
[Atoms] (AU)
Fe   1   26     3.17068844873907     0.00098706064664     0.12237737881307
O   2   8     0.00000000000000     0.00000000000000    -0.89004350580623
Fe   3   26    -3.17068844873907    -0.00098706064664     0.12237737881307
Cl   4   17     3.53383895113107    -2.07485195383062     3.76228752659000
Cl   5   17     5.54152580550813    -1.85590924879884    -2.78672786652360
Cl   6   17     4.48169216485503     3.92976278472880    -0.95330240907949
Cl   7   17    -3.53383895113107     2.07485195383062     3.76228752659000
Cl   8   17    -5.54152580550813     1.85590924879884    -2.78672786652360
Cl   9   17    -4.48169216485503    -3.92976278472880    -0.95330240907949
[GTO]
1 0
 s    8 1.00
          300784.84637  0.00024103305017787
          45088.970557  0.0018687382457119
          10262.516317  0.0097155134617046
          2905.2897293   0.039479967013317
          946.11487137    0.12842162832271
          339.87832894    0.30457860754832
          131.94425588    0.43465553776779
          52.111494077    0.22742382379948
 s    4 1.00
          329.48839267  -0.024716645792921
          101.92332739   -0.11669599822835
          16.240462745    0.55229779440271
          6.8840675801    0.53539752037712
 s    2 1.00
          10.470693782   -0.37745869768095
          1.7360039648     1.1722622909796
 s    1 1.00
         0.72577288979                   1
 s    1 1.00
         0.11595528203                   1
 s    1 1.00
        0.041968227746                   1
 p    6 1.00
           1585.395997  0.0027395641750272
          375.38006499   0.022167496552173
          120.31816501    0.10364840341367
          44.788749031    0.29703230666936
          17.829278584    0.47773374381763
          7.2247153786    0.27871749884095
 p    3 1.00
          28.143219756  -0.020268742366329
          3.8743241412    0.38603381535444
          1.5410752281    0.67538247288481
 p    1 1.00
          0.5828561525                   1
 p    1 1.00
              0.134915                   1
 d    4 1.00
          61.996675034   0.019497333982305
          17.873732552    0.11922868100386
          6.2744782934    0.37625274789341
          2.3552337175    0.64997843079553
 d    1 1.00
         0.85432239901                   1
 d    1 1.00
         0.27869254413                   1
 d    1 1.00
                 0.091                   1
 f    1 1.00
                 1.598                   1

2 0
 s    6 1.00
          27032.382631  0.00057227335211155
          4052.3871392  0.0044353233492995
           922.3272271   0.023020107706038
          261.24070989   0.092822490667928
          85.354641351    0.29378500009671
          31.035035245    0.67401604501641
 s    2 1.00
          12.260860728    0.63839937025506
          4.9987076005    0.39534587125718
 s    1 1.00
          1.1703108158                   1
 s    1 1.00
         0.46474740994                   1
 s    1 1.00
         0.18504536357                   1
 p    4 1.00
          63.274954801   0.012018332222616
          14.627049379   0.083005421790056
          4.4501223456    0.31991743925964
          1.5275799647    0.70715542916104
 p    1 1.00
         0.52935117943                   1
 p    1 1.00
          0.1747842127                   1
 d    1 1.00
                 2.314                   1
 d    1 1.00
                 0.645                   1
 f    1 1.00
                 1.428                   1

3 0
 s    8 1.00
          300784.84637  0.00024103305017787
          45088.970557  0.0018687382457119
          10262.516317  0.0097155134617046
          2905.2897293   0.039479967013317
          946.11487137    0.12842162832271
          339.87832894    0.30457860754832
          131.94425588    0.43465553776779
          52.111494077    0.22742382379948
 s    4 1.00
          329.48839267  -0.024716645792921
          101.92332739   -0.11669599822835
          16.240462745    0.55229779440271
          6.8840675801    0.53539752037712
 s    2 1.00
          10.470693782   -0.37745869768095
          1.7360039648     1.1722622909796
 s    1 1.00
         0.72577288979                   1
 s    1 1.00
         0.11595528203                   1
 s    1 1.00
        0.041968227746                   1
 p    6 1.00
           1585.395997  0.0027395641750272
          375.38006499   0.022167496552173
          120.31816501    0.10364840341367
          44.788749031    0.29703230666936
          17.829278584    0.47773374381763
          7.2247153786    0.27871749884095
 p    3 1.00
          28.143219756  -0.020268742366329
          3.8743241412    0.38603381535444
          1.5410752281    0.67538247288481
 p    1 1.00
          0.5828561525                   1
 p    1 1.00
              0.134915                   1
 d    4 1.00
          61.996675034   0.019497333982305
          17.873732552    0.11922868100386
          6.2744782934    0.37625274789341
          2.3552337175    0.64997843079553
 d    1 1.00
         0.85432239901                   1
 d    1 1.00
         0.27869254413                   1
 d    1 1.00
                 0.091                   1
 f    1 1.00
                 1.598                   1

4 0
 s    7 1.00
          69507.990945  0.00051457389646325
           10426.15688  0.0039781344806745
          2373.2334061   0.020456178670619
          671.56420071   0.080148102887582
           218.4199979    0.23454770317658
          77.572249714    0.44543368582255
          28.888815277    0.35466842499038
 s    3 1.00
          127.10527185    0.11293688054705
          39.339582961     0.4837351421006
          7.6740679989     -1.229229738981
 s    2 1.00
           3.874562763    0.67296821635762
          1.8385832573    0.34956051409054
 s    1 1.00
         0.50229057542                   1
 s    1 1.00
          0.1796272342                   1
 p    5 1.00
          666.50423284  0.0033502508198275
           157.6424169   0.026763970407523
          50.262520978      0.123626823608
          18.536078105    0.35845787918981
          7.2940532777    0.61677296353714
 p    1 1.00
          2.9433248995                   1
 p    1 1.00
          1.0404970818                   1
 p    1 1.00
          0.3845641508                   1
 p    1 1.00
         0.13069642732                   1
 d    2 1.00
                  4.61    0.18265835045336
                 1.011    0.91329175226681
 d    1 1.00
                 0.339                   1
 f    1 1.00
                 0.706                   1

5 0
 s    7 1.00
          69507.990945  0.00051457389646325
           10426.15688  0.0039781344806745
          2373.2334061   0.020456178670619
          671.56420071   0.080148102887582
           218.4199979    0.23454770317658
          77.572249714    0.44543368582255
          28.888815277    0.35466842499038
 s    3 1.00
          127.10527185    0.11293688054705
          39.339582961     0.4837351421006
          7.6740679989     -1.229229738981
 s    2 1.00
           3.874562763    0.67296821635762
          1.8385832573    0.34956051409054
 s    1 1.00
         0.50229057542                   1
 s    1 1.00
          0.1796272342                   1
 p    5 1.00
          666.50423284  0.0033502508198275
           157.6424169   0.026763970407523
          50.262520978      0.123626823608
          18.536078105    0.35845787918981
          7.2940532777    0.61677296353714
 p    1 1.00
          2.9433248995                   1
 p    1 1.00
          1.0404970818                   1
 p    1 1.00
          0.3845641508                   1
 p    1 1.00
         0.13069642732                   1
 d    2 1.00
                  4.61    0.18265835045336
                 1.011    0.91329175226681
 d    1 1.00
                 0.339                   1
 f    1 1.00
                 0.706                   1

6 0
 s    7 1.00
          69507.990945  0.00051457389646325
           10426.15688  0.0039781344806745
          2373.2334061   0.020456178670619
          671.56420071   0.080148102887582
           218.4199979    0.23454770317658
          77.572249714    0.44543368582255
          28.888815277    0.35466842499038
 s    3 1.00
          127.10527185    0.11293688054705
          39.339582961     0.4837351421006
          7.6740679989     -1.229229738981
 s    2 1.00
           3.874562763    0.67296821635762
          1.8385832573    0.34956051409054
 s    1 1.00
         0.50229057542                   1
 s    1 1.00
          0.1796272342                   1
 p    5 1.00
          666.50423284  0.0033502508198275
           157.6424169   0.026763970407523
          50.262520978      0.123626823608
          18.536078105    0.35845787918981
          7.2940532777    0.61677296353714
 p    1 1.00
          2.9433248995                   1
 p    1 1.00
          1.0404970818                   1
 p    1 1.00
          0.3845641508                   1
 p    1 1.00
         0.13069642732                   1
 d    2 1.00
                  4.61    0.18265835045336
                 1.011    0.91329175226681
 d    1 1.00
                 0.339                   1
 f    1 1.00
                 0.706                   1

7 0
 s    7 1.00
          69507.990945  0.00051457389646325
           10426.15688  0.0039781344806745
          2373.2334061   0.020456178670619
          671.56420071   0.080148102887582
           218.4199979    0.23454770317658
          77.572249714    0.44543368582255
          28.888815277    0.35466842499038
 s    3 1.00
          127.10527185    0.11293688054705
          39.339582961     0.4837351421006
          7.6740679989     -1.229229738981
 s    2 1.00
           3.874562763    0.67296821635762
          1.8385832573    0.34956051409054
 s    1 1.00
         0.50229057542                   1
 s    1 1.00
          0.1796272342                   1
 p    5 1.00
          666.50423284  0.0033502508198275
           157.6424169   0.026763970407523
          50.262520978      0.123626823608
          18.536078105    0.35845787918981
          7.2940532777    0.61677296353714
 p    1 1.00
          2.9433248995                   1
 p    1 1.00
          1.0404970818                   1
 p    1 1.00
          0.3845641508                   1
 p    1 1.00
         0.13069642732                   1
 d    2 1.00
                  4.61    0.18265835045336
                 1.011    0.91329175226681
 d    1 1.00
                 0.339                   1
 f    1 1.00
                 0.706                   1

8 0
 s    7 1.00
          69507.990945  0.00051457389646325
           10426.15688  0.0039781344806745
          2373.2334061   0.020456178670619
          671.56420071   0.080148102887582
           218.4199979    0.23454770317658
          77.572249714    0.44543368582255
          28.888815277    0.35466842499038
 s    3 1.00
          127.10527185    0.11293688054705
          39.339582961     0.4837351421006
          7.6740679989     -1.229229738981
 s    2 1.00
           3.874562763    0.67296821635762
          1.8385832573    0.34956051409054
 s    1 1.00
         0.50229057542                   1
 s    1 1.00
          0.1796272342                   1
 p    5 1.00
          666.50423284  0.0033502508198275
           157.6424169   0.026763970407523
          50.262520978      0.123626823608
          18.536078105    0.35845787918981
          7.2940532777    0.61677296353714
 p    1 1.00
          2.9433248995                   1
 p    1 1.00
          1.0404970818                   1
 p    1 1.00
          0.3845641508                   1
 p    1 1.00
         0.13069642732                   1
 d    2 1.00
                  4.61    0.18265835045336
                 1.011    0.91329175226681
 d    1 1.00
                 0.339                   1
 f    1 1.00
                 0.706                   1

9 0
 s    7 1.00
          69507.990945  0.00051457389646325
           10426.15688  0.0039781344806745
          2373.2334061   0.020456178670619
          671.56420071   0.080148102887582
           218.4199979    0.23454770317658
          77.572249714    0.44543368582255
          28.888815277    0.35466842499038
 s    3 1.00
          127.10527185    0.11293688054705
          39.339582961     0.4837351421006
          7.6740679989     -1.229229738981
 s    2 1.00
           3.874562763    0.67296821635762
          1.8385832573    0.34956051409054
 s    1 1.00
         0.50229057542                   1
 s    1 1.00
          0.1796272342                   1
 p    5 1.00
          666.50423284  0.0033502508198275
           157.6424169   0.026763970407523
          50.262520978      0.123626823608
          18.536078105    0.35845787918981
          7.2940532777    0.61677296353714
 p    1 1.00
          2.9433248995                   1
 p    1 1.00
          1.0404970818                   1
 p    1 1.00
          0.3845641508                   1
 p    1 1.00
         0.13069642732                   1
 d    2 1.00
                  4.61    0.18265835045336
                 1.011    0.91329175226681
 d    1 1.00
                 0.339                   1
 f    1 1.00
                 0.706                   1

[5d]
[7f]
[9g]

[MO]
 Sym= A
 Ene=               0
 Spin= Alpha
 Occup=    1.00000
   1    0.0017545966200564
   2    -0.0047623613920727
   3     0.015405809644087
   4    0.0079207253611042
   5    -0.032532410691717
   6    0.0034391025566079
   7    0.0025698205185715
   8    0.0013511928754216
   9    -0.0067779748267281
  10    -0.0074430988355934
  11    -0.0039247518050659
  12     0.019769001366909
  13     0.001045231581996
  14    1.3651579267943e-05
  15    -0.0024637618207708
  16    0.0015495539913753
  17    0.0036301112800226
  18    -0.020644750084477
  19      0.16432513313777
  20     -0.28545170833709
  21     -0.42880751416152
  22      0.32626851404596
  23      0.13733235971799
  24      0.10582299029387
  25     -0.18282730852783
  26     -0.27560187727855
  27      0.20883685118851
  28     0.087900949805708
  29     0.036679417537305
  30    -0.067037136002137
  31    -0.099466450347574
  32     0.079167119761375
  33     0.032918714855915
  34    -0.0042914861853021
  35    0.0048874399503427
  36    0.0063278042169551
  37    -0.0029048973264238
  38    -0.002953277963081
  39    0.0008871429279881
  40    -0.00083904459358444
  41    -0.00099839784810319
  42    0.00011161046827398
  43    -0.00056332185763152
  44    0.00088939420897264
  45    0.00018008330375806
  46    2.851250028793e-05
  47    1.9972944827402e-05
  48    0.00050706017209885
  49    0.00087673533770998
  50    -0.011117463325597
  51    -0.00023884927668292
  52    -0.0012583049638151
  53    -0.027968907078506
  54    -0.0014783350192065
  55    -0.0011146073174321
  56    -0.028046619616238
  57    0.0024521725483405
  58    -0.0017597710167321
  59     -0.02734283873881
  60    0.00029113821332539
  61    0.00058921940871916
  62    -0.00017726529643362
  63    0.00020857647820185
  64    7.174015189296e-05
  65    -0.00045543354422033
  66    0.00097281936506082
  67    -0.00049456869727643
  68    -0.00057306011537332
  69    0.00019805311642776
  70    0.00017313290821641
  71    0.00050478399617084
  72    -0.00011914576033148
  73    -8.8362199624116e-05
  74    -0.00016727402234663
  75    3.2393119442029e-05
  76    7.1512957121171e-05
  77    0.00030189785431851
  78    -0.00081736006486159
  79    0.0026498412392027
  80    0.0010008504853045
  81     0.001366752589361
  82    0.0006795588910883
  83    -0.0014875038669336
  84    1.3684246737156e-05
  85    -0.00076897685688387
  86    0.0042780379253931
  87    -4.5699759683709e-05
  88    0.0022115430899021
  89    8.3483876975902e-06
  90    3.8171372775398e-05
  91    0.00013550736327316
  92    0.0020489551372312
  93    -0.00017697537723274
  94    -0.0054494387667875
  95    0.00039752521595605
  96    -0.00087049504706183
  97    6.9161330396926e-05
  98    -0.00032310704026633
  99    0.0001175643335559
 100    0.00070683276000423
 101    -0.00055988512666972
 102    7.227150692235e-05
 103    -0.00069784772777201
 104    5.4155325890317e-05
 105    0.00024634585768096
 106    -0.0027947441284388
 107    0.00038806775091803
 108    0.00026288172509014
 109    0.00014877148783303
 110    0.0002241647281806
 111    0.0021773028121476
 112    -0.0022741854386179
 113    0.0026658452023578
 114    -0.0014519308622016
 115    8.9258316401149e-05
 116    0.00029135714599585
 117    3.0417917657736e-05
 118    -0.00015545520968393
 119    1.6794837465475e-05
 120    -0.00015716900379683
 121    -1.8206665079735e-05
 122    -0.0020222345016742
 123    -0.0017144841484353
 124     0.012040929316451
 125    -0.017253608102997
 126    -0.010138252444957
 127    -0.010398188107967
 128    0.0069851030195495
 129    -0.011620637497885
 130    -0.0053901878119054
 131    0.0036513276248128
 132    -0.006086404000302
 133     0.013772597047966
 134    -0.0093506262419633
 135     0.015667185624849
 136     0.028513062977919
 137    -0.019925070212482
 138     0.032936605685971
 139     0.023087039197154
 140     -0.01575479553576
 141     0.027792939622856
 142    0.0008393925534649
 143    0.0012922713127862
 144    -0.0012064790459107
 145    0.0001170498414389
 146    -0.00078539160702234
 147    -0.00019516537197956
 148    0.0012223996757614
 149    -0.00062323650198697
 150    0.00074650038461946
 151    -0.00090181130239879
 152    -0.00017513489001943
 153    -0.0005742456010994
 154    0.0011731570835723
 155    0.00032600120896378
 156    0.00065851311870909
 157    0.0002144378277301
 158    8.5140709042998e-05
 159    0.00055870175505115
 160    0.00049746476764583
 161    -0.0032831378758264
 162    0.0040571340475736
 163    0.0049481364832919
 164     0.010926219105179
 165     0.016557051539387
 166    -0.0073130504515935
 167    0.0055852515599966
 168    0.0084864565346746
 169    -0.0037327549564738
 170    -0.014056548400891
 171    -0.021559023359322
 172     0.009351298115422
 173    -0.030341633955446
 174    -0.045573915277156
 175     0.020318895553067
 176    -0.025408547753947
 177     -0.03692905736573
 178     0.017681373905745
 179    -0.00085104868434417
 180    0.0014203077743883
 181    0.0015693933205638
 182    -0.0018986744692038
 183    -0.001028127327831
 184    8.5628332649364e-05
 185    0.00014518495570672
 186    0.0012227257003888
 187    -0.0012415016748165
 188    -0.0012870358526466
 189    -0.00015435301655006
 190    0.00030015431175305
 191    0.00019747157455848
 192    -0.00077027098600968
 193    -0.00036649474225674
 194    0.00057323340528554
 195    -5.2262615559618e-05
 196    0.00047265331138809
 197    0.00045104846694364
 198    -0.0027329001489206
 199    0.0024726667088466
 200     0.007098785360331
 201    0.0084753139616809
 202    -0.0036997083151636
 203    -0.017969794095657
 204     0.004303225333885
 205    -0.002001880748841
 206    -0.0091714850506875
 207    -0.010805280602099
 208    0.0053623579472181
 209     0.023075833553766
 210    -0.023541637250811
 211    0.0094121026155488
 212     0.049575234236798
 213    -0.019249757347507
 214    0.0062793144638145
 215     0.041238925929087
 216    -0.0010399772504697
 217    0.0011012323419275
 218    0.0018532520883981
 219    -0.0011961065385612
 220    -0.00071671206670063
 221    -0.00091493573811276
 222    0.00067810875055998
 223    0.00030998681520962
 224    -0.0019793476409326
 225    0.00042898359584136
 226    0.00016227391630299
 227    0.00011308839504109
 228    0.00057929084122515
 229    8.2844080041943e-05
 230    -0.00030895332408991
 231    0.00014918257097728
 232    0.00052530285933484
 233    0.00019405104530702
 234    0.00018770453539812
 235    -0.0011506915059906
 236    0.0013279392444219
 237    0.0038120756056204
 238    -0.0012193847229524
 239    0.00037057675135406
 240    0.00052863568368326
 241    -0.00063444800821209
 242    0.00019479727384248
 243    0.00025644968145799
 244    0.0016399507199585
 245    -0.00050542609256686
 246    -0.00063717791132774
 247     0.003274932582032
 248    -0.0011070379202587
 249    -0.0016348680698854
 250    0.0025886843423586
 251    -0.0010783977164992
 252    -0.0027933825204716
 253    -2.6122001322928e-05
 254    0.0001608511354976
 255    -4.4190240468046e-05
 256    -5.5917316697659e-05
 257    9.6840442567335e-05
 258    0.00038261800352918
 259    9.4207046690268e-05
 260    -3.0007708676779e-05
 261    -0.00022899880193583
 262    0.00028104666089446
 263    -2.7762233394914e-05
 264    5.2326853289563e-05
 265    -8.0421127651324e-06
 266    2.8683701329031e-05
 267    1.6386812586251e-05
 268    -8.1411880107611e-06
 269    2.8978065086988e-05
 270    -4.8437133437746e-05
 271    -6.6566738981775e-05
 272    0.00027776378520292
 273    4.0675586556912e-05
 274    -0.0035342330261668
 275    0.00056847827944038
 276    -6.2857510161679e-05
 277    -0.00038556428180632
 278    0.00024765504125331
 279    -3.9117833184745e-05
 280    -0.00019272610651365
 281    -0.00058026033064046
 282    0.00011743747404181
 283    0.00046946042445317
 284    -0.0019714522398815
 285    0.00013737994848353
 286    0.0010079800680869
 287    -0.0011988332618335
 288    0.00094738677324489
 289    0.00032620935513677
 290    -9.2431447603054e-05
 291    -4.4847775929208e-05
 292    -2.3784336544196e-06
 293    6.7644436117516e-05
 294    -4.3765298920066e-05
 295    0.00021490235062032
 296    9.5925374954118e-05
 297    -7.7434469972363e-05
 298    -3.0657598056872e-06
 299    -5.0810301444535e-05
 300    2.772863248382e-05
 301    4.7162542291984e-05
 302    -5.0262970406522e-05
 303    -3.2837275640769e-05
 304    -3.5779425711314e-05
 305    -1.9652756854728e-05
 306    4.4620799936027e-07
 307    1.8676803090228e-06
 308    9.7473555517679e-06
 309    -2.5892465794494e-06
 310    -0.00021899733420474
 311    0.0014635282104996
 312    -5.9281378022517e-05
 313    -2.139341774888e-05
 314    -0.00050064033313066
 315    -3.0201927158214e-05
 316    -5.6994607236033e-06
 317    -0.0002413541092206
 318    7.1405244927765e-05
 319    -4.7398639316435e-06
 320    0.00058968384868588
 321    0.00021315283303457
 322    0.00015375587713263
 323    0.0015272126005661
 324    0.00016684768821503
 325    0.00014184055533822
 326    0.0011105083655247
 327    -5.1038999277509e-05
 328    5.218168153491e-06
 329    -6.7478147025396e-05
 330    -8.5152533324304e-06
 331    2.6611904799361e-05
 332    0.00013324611145937
 333    -0.00039240154116022
 334    7.0753266036756e-05
 335    -3.5040691115288e-05
 336    -8.6757403027096e-05
 337    1.3049068292344e-05
 338    1.1145361099307e-06
 339    2.2139012897492e-05
 340    -5.3265232770929e-05
 341    -4.136635578966e-05
 342    1.2273422438421e-05
 343    -2.4814144137219e-05
 Sym= A
 Ene=               1
 Spin= Alpha
 Occup=    1.00000
   1    -0.00087369890956324
   2    0.0023709447420268
   3    -0.0076750774103794
   4    -0.0040688159141569
   5      0.01925987750899
   6    -0.0013742990278261
   7    -0.0012855435737995
   8    0.0095900978247439
   9    0.0040020947159032
  10    0.0037312409115085
  11    -0.028010066860518
  12    -0.011712234820936
  13    -0.00066106116640905
  14    0.0044773828250473
  15    0.0023848224863872
  16    -0.0019424473675239
  17     0.026624300672144
  18     0.011205777106298
  19      0.45408245066883
  20     0.059436297526402
  21      0.33244523930969
  22      0.14580606496298
  23      0.27572217316318
  24      0.29084332694541
  25     0.037981078684459
  26      0.21333284376883
  27     0.093737382676052
  28      0.17610878505551
  29      0.10585958088329
  30     0.013506948720164
  31     0.076532883221121
  32     0.032564810134313
  33     0.065076589852966
  34    -0.0053017292205569
  35    0.00065822737320078
  36    -0.0041268994922093
  37    -0.0025454138475451
  38    -0.0032029894570737
  39    0.00077539009617044
  40     0.001200207153909
  41    0.0006290250990537
  42    0.00065516405601721
  43    0.0012768627082905
  44    3.2044810073203e-05
  45    0.0011615445292793
  46    0.00040834491629969
  47     0.001034146444625
  48    -0.0019326432135869
  49    -0.0033713047009269
  50    0.0048739606735291
  51    -0.0036422381815779
  52     0.041062125332377
  53     0.026981601937476
  54    -0.0031909535111453
  55     0.040539309684548
  56     0.026694577978824
  57    -0.0085011735885001
  58     0.036250058539381
  59     0.026335572395622
  60    -9.3751129764811e-05
  61    -0.00060738331646203
  62     -0.00015748448993
  63    0.00015212796648735
  64    -0.00092415700555795
  65    0.0010408602995933
  66    -0.0014184022083767
  67    0.0016329393852531
  68    0.00088055225239896
  69    -0.0015991188597552
  70    6.436673430628e-05
  71    -0.0002622041355569
  72    6.8764039720841e-05
  73    5.3194935598103e-05
  74    -0.00033603996156222
  75    0.00018620660558694
  76    -0.00010496384308059
  77    -0.00040852277328581
  78    0.0011427827377723
  79    -0.0035259820584523
  80    -0.0018103502480362
  81    -0.00036505071011992
  82    -0.0004157707252213
  83    0.0018112234404246
  84    0.0016298644267275
  85    0.00046835295308662
  86    -0.0052408079294462
  87    -0.0046720350243391
  88    -0.0013002052447692
  89    2.9271138567148e-05
  90    -0.00029628314766778
  91    -0.00041255843106107
  92    -0.0012678803026563
  93    0.0073013009769296
  94    0.0058885867061636
  95    -0.00053457935216908
  96    0.00027857342100901
  97    -0.00019216244304744
  98    0.00042434639695288
  99    0.00087936707780055
 100    -0.00084314036130323
 101    9.7832927296975e-05
 102    -0.00030220268316935
 103    0.0008050998479686
 104    0.0011290033846803
 105    -0.00070519620816379
 106    0.0022090071495444
 107    -0.001031279903202
 108    -0.00036906313779165
 109    0.0033383734791579
 110    0.0022329644741068
 111    0.00060146933552444
 112    0.0014621271449035
 113    -0.00034613580479459
 114    -0.0015316232724609
 115    -5.4058562770896e-05
 116    -0.00028809070118844
 117    -0.00011719947017233
 118    0.00015016669819795
 119    -0.00026417883778538
 120    0.00018398762171243
 121    0.00050721172024578
 122    -0.000176860214052
 123    -0.0001762611749591
 124    0.0010077550823431
 125    -0.00057276117448003
 126    -0.0037770516477365
 127    -0.003021033453323
 128     0.019012828454741
 129    0.0093086396609497
 130    -0.0015461685173767
 131    0.0097260155913125
 132     0.004877975372489
 133    0.0039327452810198
 134    -0.024598634135317
 135    -0.012606187386655
 136    0.0083664127591583
 137    -0.052609628623044
 138    -0.024968825186009
 139    0.0067331820424184
 140    -0.045143227318069
 141    -0.020959586854478
 142    -0.0023950736920416
 143    0.00033481173731806
 144    -0.0015896665795698
 145    -0.0013652478641353
 146    -0.00037625319618907
 147    -0.002231175355356
 148    0.00012109402947615
 149    -0.00020518875105208
 150    -0.00063092376067233
 151    -0.00033491862889225
 152    0.0011171391777728
 153    -4.8046240899826e-05
 154    -0.00017963022908952
 155    0.00050997564411045
 156    0.00011542114026814
 157    6.637016702761e-05
 158    -0.0002244494399968
 159    -0.0012476382154505
 160    -0.0010623604528779
 161    0.0074320289378866
 162    -0.010668605168028
 163    -0.0068847514806886
 164    -0.013945131729779
 165      0.01140375816665
 166    -0.0063961151413943
 167    -0.0071729641827458
 168    0.0058841005147487
 169    -0.0032594788869403
 170     0.018180883523022
 171    -0.015002188855869
 172    0.0082461442582189
 173     0.038899587724025
 174    -0.031365448005501
 175     0.017151671589297
 176     0.032012446346051
 177      -0.0286208906494
 178     0.013913028223342
 179    -0.0020573141948898
 180    -0.00030808142825831
 181    0.00057572235425289
 182    0.00022203302796332
 183    -0.0016174495933179
 184    -0.0015641963420586
 185    0.00058056300440531
 186    -0.00055145448283251
 187    0.00065337674523974
 188    -0.0004308641400824
 189    -0.00068721827853438
 190    0.00033155830298259
 191    -0.00020489189966358
 192    0.0002373559152656
 193    -0.0004542279695914
 194    4.1459700314861e-05
 195    0.00042663298736057
 196    0.0019511290333243
 197    0.0016538056787784
 198    -0.011602624543438
 199     0.016405809440656
 200     0.010959247801145
 201     0.011722343117439
 202     0.011828904953146
 203    0.0022831224318352
 204    0.0060459448498011
 205    0.0061850100673932
 206    0.0011592542453594
 207    -0.015321371949137
 208    -0.015764777452264
 209    -0.0030138963287924
 210    -0.032687671855866
 211    -0.033456639023013
 212    -0.0056253887248831
 213    -0.025603161671481
 214    -0.029243461001223
 215    -0.006401902665255
 216    0.0010764518006919
 217    0.00023092397134421
 218    -0.00043307372215962
 219    0.00042294795495595
 220    -0.0013504898051238
 221    0.00046569135445305
 222    0.00015589928968516
 223    -0.00054549692809405
 224    -0.001009626300279
 225    -0.00072459521996886
 226    0.00031071313749471
 227    -0.00024731778913173
 228    -0.00051786029920524
 229    0.00011838714591718
 230    -0.00037576214543583
 231    -0.00068061026881987
 232    -1.536738897131e-06
 233    -0.00024070542734165
 234    -0.0002329525717362
 235    0.0014247877883848
 236    -0.0014687842136603
 237    -0.005690298681671
 238    0.0015381703696539
 239    -2.5275982725948e-06
 240    -0.0012324501976978
 241    0.00074530382653515
 242    2.7279141808167e-05
 243    -0.00058594960334966
 244    -0.0018527389476184
 245    -0.00010800087433969
 246    0.0014380335189142
 247    -0.0045668722866535
 248    0.00031697526667503
 249    0.0039735364073247
 250    -0.0032516197625255
 251    0.0011004889248678
 252    0.0044273061087449
 253    0.00012957145523722