[Molden Format]
made by pyscf v[2.2.1]
[Atoms] (AU)
Fe   1   26     3.17068844873907     0.00098706064664     0.12237737881307
O   2   8     0.00000000000000     0.00000000000000    -0.89004350580623
Fe   3   26    -3.17068844873907    -0.00098706064664     0.12237737881307
Cl   4   17     3.53383895113107    -2.07485195383062     3.76228752659000
Cl   5   17     5.54152580550813    -1.85590924879884    -2.78672786652360
Cl   6   17     4.48169216485503     3.92976278472880    -0.95330240907949
Cl   7   17    -3.53383895113107     2.07485195383062     3.76228752659000
Cl   8   17    -5.54152580550813     1.85590924879884    -2.78672786652360
Cl   9   17    -4.48169216485503    -3.92976278472880    -0.95330240907949
[GTO]
1 0
 s    8 1.00
          300784.84637  0.00024103305017787
          45088.970557  0.0018687382457119
          10262.516317  0.0097155134617046
          2905.2897293   0.039479967013317
          946.11487137    0.12842162832271
          339.87832894    0.30457860754832
          131.94425588    0.43465553776779
          52.111494077    0.22742382379948
 s    4 1.00
          329.48839267  -0.024716645792921
          101.92332739   -0.11669599822835
          16.240462745    0.55229779440271
          6.8840675801    0.53539752037712
 s    2 1.00
          10.470693782   -0.37745869768095
          1.7360039648     1.1722622909796
 s    1 1.00
         0.72577288979                   1
 s    1 1.00
         0.11595528203                   1
 s    1 1.00
        0.041968227746                   1
 p    6 1.00
           1585.395997  0.0027395641750272
          375.38006499   0.022167496552173
          120.31816501    0.10364840341367
          44.788749031    0.29703230666936
          17.829278584    0.47773374381763
          7.2247153786    0.27871749884095
 p    3 1.00
          28.143219756  -0.020268742366329
          3.8743241412    0.38603381535444
          1.5410752281    0.67538247288481
 p    1 1.00
          0.5828561525                   1
 p    1 1.00
              0.134915                   1
 d    4 1.00
          61.996675034   0.019497333982305
          17.873732552    0.11922868100386
          6.2744782934    0.37625274789341
          2.3552337175    0.64997843079553
 d    1 1.00
         0.85432239901                   1
 d    1 1.00
         0.27869254413                   1
 d    1 1.00
                 0.091                   1
 f    1 1.00
                 1.598                   1

2 0
 s    6 1.00
          27032.382631  0.00057227335211155
          4052.3871392  0.0044353233492995
           922.3272271   0.023020107706038
          261.24070989   0.092822490667928
          85.354641351    0.29378500009671
          31.035035245    0.67401604501641
 s    2 1.00
          12.260860728    0.63839937025506
          4.9987076005    0.39534587125718
 s    1 1.00
          1.1703108158                   1
 s    1 1.00
         0.46474740994                   1
 s    1 1.00
         0.18504536357                   1
 p    4 1.00
          63.274954801   0.012018332222616
          14.627049379   0.083005421790056
          4.4501223456    0.31991743925964
          1.5275799647    0.70715542916104
 p    1 1.00
         0.52935117943                   1
 p    1 1.00
          0.1747842127                   1
 d    1 1.00
                 2.314                   1
 d    1 1.00
                 0.645                   1
 f    1 1.00
                 1.428                   1

3 0
 s    8 1.00
          300784.84637  0.00024103305017787
          45088.970557  0.0018687382457119
          10262.516317  0.0097155134617046
          2905.2897293   0.039479967013317
          946.11487137    0.12842162832271
          339.87832894    0.30457860754832
          131.94425588    0.43465553776779
          52.111494077    0.22742382379948
 s    4 1.00
          329.48839267  -0.024716645792921
          101.92332739   -0.11669599822835
          16.240462745    0.55229779440271
          6.8840675801    0.53539752037712
 s    2 1.00
          10.470693782   -0.37745869768095
          1.7360039648     1.1722622909796
 s    1 1.00
         0.72577288979                   1
 s    1 1.00
         0.11595528203                   1
 s    1 1.00
        0.041968227746                   1
 p    6 1.00
           1585.395997  0.0027395641750272
          375.38006499   0.022167496552173
          120.31816501    0.10364840341367
          44.788749031    0.29703230666936
          17.829278584    0.47773374381763
          7.2247153786    0.27871749884095
 p    3 1.00
          28.143219756  -0.020268742366329
          3.8743241412    0.38603381535444
          1.5410752281    0.67538247288481
 p    1 1.00
          0.5828561525                   1
 p    1 1.00
              0.134915                   1
 d    4 1.00
          61.996675034   0.019497333982305
          17.873732552    0.11922868100386
          6.2744782934    0.37625274789341
          2.3552337175    0.64997843079553
 d    1 1.00
         0.85432239901                   1
 d    1 1.00
         0.27869254413                   1
 d    1 1.00
                 0.091                   1
 f    1 1.00
                 1.598                   1

4 0
 s    7 1.00
          69507.990945  0.00051457389646325
           10426.15688  0.0039781344806745
          2373.2334061   0.020456178670619
          671.56420071   0.080148102887582
           218.4199979    0.23454770317658
          77.572249714    0.44543368582255
          28.888815277    0.35466842499038
 s    3 1.00
          127.10527185    0.11293688054705
          39.339582961     0.4837351421006
          7.6740679989     -1.229229738981
 s    2 1.00
           3.874562763    0.67296821635762
          1.8385832573    0.34956051409054
 s    1 1.00
         0.50229057542                   1
 s    1 1.00
          0.1796272342                   1
 p    5 1.00
          666.50423284  0.0033502508198275
           157.6424169   0.026763970407523
          50.262520978      0.123626823608
          18.536078105    0.35845787918981
          7.2940532777    0.61677296353714
 p    1 1.00
          2.9433248995                   1
 p    1 1.00
          1.0404970818                   1
 p    1 1.00
          0.3845641508                   1
 p    1 1.00
         0.13069642732                   1
 d    2 1.00
                  4.61    0.18265835045336
                 1.011    0.91329175226681
 d    1 1.00
                 0.339                   1
 f    1 1.00
                 0.706                   1

5 0
 s    7 1.00
          69507.990945  0.00051457389646325
           10426.15688  0.0039781344806745
          2373.2334061   0.020456178670619
          671.56420071   0.080148102887582
           218.4199979    0.23454770317658
          77.572249714    0.44543368582255
          28.888815277    0.35466842499038
 s    3 1.00
          127.10527185    0.11293688054705
          39.339582961     0.4837351421006
          7.6740679989     -1.229229738981
 s    2 1.00
           3.874562763    0.67296821635762
          1.8385832573    0.34956051409054
 s    1 1.00
         0.50229057542                   1
 s    1 1.00
          0.1796272342                   1
 p    5 1.00
          666.50423284  0.0033502508198275
           157.6424169   0.026763970407523
          50.262520978      0.123626823608
          18.536078105    0.35845787918981
          7.2940532777    0.61677296353714
 p    1 1.00
          2.9433248995                   1
 p    1 1.00
          1.0404970818                   1
 p    1 1.00
          0.3845641508                   1
 p    1 1.00
         0.13069642732                   1
 d    2 1.00
                  4.61    0.18265835045336
                 1.011    0.91329175226681
 d    1 1.00
                 0.339                   1
 f    1 1.00
                 0.706                   1

6 0
 s    7 1.00
          69507.990945  0.00051457389646325
           10426.15688  0.0039781344806745
          2373.2334061   0.020456178670619
          671.56420071   0.080148102887582
           218.4199979    0.23454770317658
          77.572249714    0.44543368582255
          28.888815277    0.35466842499038
 s    3 1.00
          127.10527185    0.11293688054705
          39.339582961     0.4837351421006
          7.6740679989     -1.229229738981
 s    2 1.00
           3.874562763    0.67296821635762
          1.8385832573    0.34956051409054
 s    1 1.00
         0.50229057542                   1
 s    1 1.00
          0.1796272342                   1
 p    5 1.00
          666.50423284  0.0033502508198275
           157.6424169   0.026763970407523
          50.262520978      0.123626823608
          18.536078105    0.35845787918981
          7.2940532777    0.61677296353714
 p    1 1.00
          2.9433248995                   1
 p    1 1.00
          1.0404970818                   1
 p    1 1.00
          0.3845641508                   1
 p    1 1.00
         0.13069642732                   1
 d    2 1.00
                  4.61    0.18265835045336
                 1.011    0.91329175226681
 d    1 1.00
                 0.339                   1
 f    1 1.00
                 0.706                   1

7 0
 s    7 1.00
          69507.990945  0.00051457389646325
           10426.15688  0.0039781344806745
          2373.2334061   0.020456178670619
          671.56420071   0.080148102887582
           218.4199979    0.23454770317658
          77.572249714    0.44543368582255
          28.888815277    0.35466842499038
 s    3 1.00
          127.10527185    0.11293688054705
          39.339582961     0.4837351421006
          7.6740679989     -1.229229738981
 s    2 1.00
           3.874562763    0.67296821635762
          1.8385832573    0.34956051409054
 s    1 1.00
         0.50229057542                   1
 s    1 1.00
          0.1796272342                   1
 p    5 1.00
          666.50423284  0.0033502508198275
           157.6424169   0.026763970407523
          50.262520978      0.123626823608
          18.536078105    0.35845787918981
          7.2940532777    0.61677296353714
 p    1 1.00
          2.9433248995                   1
 p    1 1.00
          1.0404970818                   1
 p    1 1.00
          0.3845641508                   1
 p    1 1.00
         0.13069642732                   1
 d    2 1.00
                  4.61    0.18265835045336
                 1.011    0.91329175226681
 d    1 1.00
                 0.339                   1
 f    1 1.00
                 0.706                   1

8 0
 s    7 1.00
          69507.990945  0.00051457389646325
           10426.15688  0.0039781344806745
          2373.2334061   0.020456178670619
          671.56420071   0.080148102887582
           218.4199979    0.23454770317658
          77.572249714    0.44543368582255
          28.888815277    0.35466842499038
 s    3 1.00
          127.10527185    0.11293688054705
          39.339582961     0.4837351421006
          7.6740679989     -1.229229738981
 s    2 1.00
           3.874562763    0.67296821635762
          1.8385832573    0.34956051409054
 s    1 1.00
         0.50229057542                   1
 s    1 1.00
          0.1796272342                   1
 p    5 1.00
          666.50423284  0.0033502508198275
           157.6424169   0.026763970407523
          50.262520978      0.123626823608
          18.536078105    0.35845787918981
          7.2940532777    0.61677296353714
 p    1 1.00
          2.9433248995                   1
 p    1 1.00
          1.0404970818                   1
 p    1 1.00
          0.3845641508                   1
 p    1 1.00
         0.13069642732                   1
 d    2 1.00
                  4.61    0.18265835045336
                 1.011    0.91329175226681
 d    1 1.00
                 0.339                   1
 f    1 1.00
                 0.706                   1

9 0
 s    7 1.00
          69507.990945  0.00051457389646325
           10426.15688  0.0039781344806745
          2373.2334061   0.020456178670619
          671.56420071   0.080148102887582
           218.4199979    0.23454770317658
          77.572249714    0.44543368582255
          28.888815277    0.35466842499038
 s    3 1.00
          127.10527185    0.11293688054705
          39.339582961     0.4837351421006
          7.6740679989     -1.229229738981
 s    2 1.00
           3.874562763    0.67296821635762
          1.8385832573    0.34956051409054
 s    1 1.00
         0.50229057542                   1
 s    1 1.00
          0.1796272342                   1
 p    5 1.00
          666.50423284  0.0033502508198275
           157.6424169   0.026763970407523
          50.262520978      0.123626823608
          18.536078105    0.35845787918981
          7.2940532777    0.61677296353714
 p    1 1.00
          2.9433248995                   1
 p    1 1.00
          1.0404970818                   1
 p    1 1.00
          0.3845641508                   1
 p    1 1.00
         0.13069642732                   1
 d    2 1.00
                  4.61    0.18265835045336
                 1.011    0.91329175226681
 d    1 1.00
                 0.339                   1
 f    1 1.00
                 0.706                   1

[5d]
[7f]
[9g]

[MO]
 Sym= A
 Ene=               0
 Spin= Alpha
 Occup=    1.00000
   1    0.0017457643150515
   2    -0.0047424253460126
   3      0.01531726240597
   4    0.0078373645221488
   5    -0.032242563541932
   6    0.0033697548184453
   7    0.0025519816227983
   8     0.001353905302308
   9    -0.0067337984630006
  10    -0.0073712014428691
  11    -0.0039312342562939
  12     0.019633475800785
  13    0.00099658197939588
  14    1.1414553753805e-05
  15    -0.0024620815793765
  16    0.0013899260947878
  17     0.003623578326077
  18    -0.020357010607092
  19      0.16412016013399
  20     -0.28564742663208
  21     -0.42885143148245
  22       0.3265636044251
  23      0.13731643309167
  24      0.10565947887877
  25     -0.18296433086082
  26     -0.27565027977837
  27      0.20909034874901
  28     0.087891334513179
  29     0.036573493470517
  30    -0.067214100837662
  31     -0.09951425911498
  32     0.079328844439537
  33     0.032912226458235
  34    -0.004281967488312
  35    0.0048398327121112
  36     0.006304550034711
  37    -0.0028788237230525
  38    -0.0029516232586286
  39    0.00088348594604765
  40    -0.00081954128801768
  41    -0.00099858255494292
  42    0.00011797175392909
  43    -0.00056437546081181
  44    0.00087820525492016
  45    0.00018262288528703
  46    3.3367143974935e-05
  47     3.47941644955e-05
  48    0.00044216477721279
  49    0.00082616875123759
  50    -0.011060615023611
  51    -0.00021179812338095
  52    -0.001096932121158
  53    -0.024844586465128
  54    -0.0014169183102491
  55    -0.0010474695179824
  56    -0.027036671218786
  57    0.0024284736179626
  58    -0.0016676911430691
  59    -0.025852887600437
  60    0.00029618493069128
  61    0.0005905198702772
  62    -0.00017758763882221
  63    0.00020787848271116
  64    7.1937681167334e-05
  65    -0.00035871610483525
  66    0.00097533159081149
  67    -0.00048946002473533
  68    -0.00056031495649906
  69    0.00019917597574481
  70    0.00015645805699788
  71    0.00050334876903907
  72    -0.00011941702387509
  73    -5.9416830548499e-05
  74    -0.00016719165499375
  75    3.4294860302478e-05
  76    7.3490377492735e-05
  77     0.000293279095234
  78    -0.00079754034860939
  79     0.002565261421877
  80    0.00094002254630867
  81    0.0015443499473638
  82    0.0006481352404202
  83    -0.0014446810867961
  84    1.2256848627733e-05
  85    -0.00073485196067236
  86    0.0041384503291061
  87    -4.1919342415041e-05
  88    0.0021083351481646
  89    5.3566395409738e-05
  90    3.5580490317681e-05
  91    0.00012514381188844
  92    0.0022103542743695
  93    -0.00015433491951445
  94    -0.0051665286325272
  95    0.00013105140309603
  96    -8.7715502198091e-05
  97    -5.9182237189256e-05
  98    -0.0003324844231805
  99    5.8749322855365e-05
 100    0.00058821941525946
 101    -0.00016398913588513
 102    -7.2786682762259e-06
 103    -0.00075007689561501
 104    2.328930730734e-05
 105    0.0001196148548951
 106    -0.0024947390608533
 107    0.00035221916536738
 108    0.00030991807790662
 109    0.00013610827827292
 110    0.0002401165534473
 111    0.0022137540137746
 112    -0.0022467164532706
 113    0.0026737923302905
 114    -0.0014429671795425
 115    8.4949209607864e-05
 116    0.00027334097072952
 117    2.8847980239211e-05
 118    -0.00014819515211645
 119    1.5561677076322e-05
 120    -0.00014442744552734
 121    -1.7045175582921e-05
 122    -0.0020308184583846
 123    -0.0017225578834136
 124     0.012092959088053
 125    -0.017329511586808
 126    -0.010261196945263
 127    -0.010330444204615
 128    0.0069509327971853
 129    -0.011555398046068
 130    -0.0053548660160053
 131    0.0036336554412292
 132    -0.0060523369303083
 133     0.013465559039649
 134    -0.0091694052824277
 135     0.015352405286317
 136     0.028591789990396
 137    -0.019898212366744
 138     0.032882938749327
 139     0.023048680047931
 140    -0.015712281852631
 141     0.027685027374605
 142    0.00084234529175659
 143    0.0013067302394519
 144    -0.0012155998572392
 145    0.00011851511079404
 146    -0.00079467983248804
 147    -0.00018838845284767
 148    0.0012273312632581
 149    -0.00063835599324009
 150    0.0007508311434442
 151    -0.00090342302768662
 152    -0.00017538223441866
 153    -0.00057448600897144
 154    0.0011778010269419
 155    0.00032732689333071
 156    0.00065926200267416
 157    0.00021410427316189
 158    8.5439321587251e-05
 159    0.00056181341120875
 160    0.00050038492062757
 161    -0.0033018405484066
 162    0.0040863645233293
 163    0.0049911064087373
 164       0.0108507499917
 165     0.016452734369061
 166    -0.0072683635716389
 167    0.0055458537236487
 168    0.0084325507439239
 169    -0.0037102386688647
 170    -0.013712390469354
 171    -0.021039927150363
 172    0.0091232320385685
 173    -0.030368116866854
 174    -0.045571879751185
 175     0.020280250162781
 176     -0.02530659192811
 177      -0.0367158528124
 178     0.017560642757265
 179    -0.00084465753376332
 180     0.001424284257855
 181    0.0015747563413321
 182    -0.0019090813761756
 183    -0.0010251580172182
 184    7.5374206040146e-05
 185    0.00015156892132752
 186    0.0012224055048915
 187    -0.0012529490358446
 188    -0.0012856188850373
 189    -0.00015623854258353
 190    0.00030305037242692
 191    0.00019581606408336
 192    -0.00077246762258903
 193    -0.0003658862950937
 194    0.00057520924010952
 195    -5.3496050499334e-05
 196    0.00047168912977261
 197    0.00045027071435983
 198    -0.0027274813530992
 199    0.0024672069994669
 200    0.0071035329261846
 201    0.0084179041513259
 202    -0.0036734146763437
 203    -0.017854106921998
 204    0.0042731646803394
 205    -0.0019886095911794
 206    -0.0091120446485324
 207    -0.010531656824895
 208    0.0052413550555333
 209     0.022506972594073
 210    -0.023537910626865
 211    0.0094340453303201
 212     0.049527988601431
 213    -0.019127871612861
 214    0.0062530748856989
 215     0.040967671309086
 216    -0.0010409078508561
 217    0.0010994244223208
 218     0.001853749706882
 219    -0.0011966398818435
 220    -0.00072023998935714
 221    -0.00092057169373032
 222    0.00067586428899019
 223    0.00032246066512877
 224    -0.0019780429491055
 225    0.00041962218128887
 226    0.00016364039475464
 227    0.00011347077504483
 228    0.00058125821466359
 229    8.6251603708587e-05
 230    -0.00031036189824134
 231    0.00014708043139209
 232    0.00052584756213999
 233    0.00018599205402247
 234    0.00018020811324789
 235    -0.0011028981842093
 236    0.0012690145533603
 237    0.0036785965542893
 238    -0.0012001258628259
 239    0.00036990868048159
 240    0.00053238903620344
 241    -0.00062473786976746
 242    0.00019487274901226
 243    0.00025927287120329
 244    0.0015630819619206
 245    -0.00049071364345584
 246    -0.00061609602490486
 247    0.0031375682015801
 248    -0.0010792144878666
 249    -0.0015824754087875
 250    0.0024242321189313
 251    -0.0010236708966986
 252    -0.002714023780964
 253    -2.7615485555265e-05
 254    0.00014611072712193
 255    -4.3228926331974e-05
 256    -5.2148410224812e-05
 257    8.7508104690635e-05
 258    0.00037313278639838
 259    9.6373139100669e-05
 260    -3.7634546237146e-05
 261    -0.00021677814852295
 262    0.00028250449416405
 263    -2.634322208075e-05
 264    5.0573262085493e-05
 265    -6.2919823869238e-06
 266     2.68029207698e-05
 267    1.5360444214153e-05
 268    -7.1225124070199e-06
 269    2.7831450482197e-05
 270    -4.8034236578374e-05
 271    -6.6004464717163e-05
 272    0.0002754458628209
 273    4.3465769480055e-05
 274    -0.0035034221079349
 275    0.00059247059560231
 276    -6.9962959648204e-05
 277    -0.00037013456582388
 278    0.00026055012143772
 279    -4.2774388361377e-05
 280    -0.00018535360873256
 281    -0.00056934654803028
 282    0.00011340165205955
 283    0.00044553191302836
 284    -0.0019441956322868
 285    0.00014022164050252
 286    0.00094303487487802
 287    -0.0011618095442184
 288    0.00095372485285503
 289    0.00027985557178485
 290    -8.4979051222982e-05
 291    -4.2724823093134e-05
 292    -7.379333214656e-06
 293    6.2152406667164e-05
 294    -4.1650879218343e-05
 295    0.00020973765027273
 296    0.00010397115772183
 297    -7.3033044466212e-05
 298    -3.5073990305493e-06
 299    -5.0225724944847e-05
 300    2.5414853284622e-05
 301    4.7769057990762e-05
 302    -4.8800731744679e-05
 303    -3.0452578938755e-05
 304    -3.6774779636786e-05
 305    -1.9769581156423e-05
 306    -1.342939009234e-07
 307    1.0042350314704e-06
 308    9.1411034495911e-06
 309    2.4195513096815e-06
 310    -0.00022845375018586
 311    0.0014784605987613
 312    -4.1108679653886e-05
 313    -1.0538778668138e-05
 314    -0.00049193285548583
 315    -2.0263487600578e-05
 316    5.6317957859901e-07
 317    -0.00023711336680785
 318    5.2995400636646e-05
 319    -1.6059862559155e-05
 320    0.00055739861005074
 321    0.00020756767697962
 322    0.00014792141117182
 323     0.001470269635316
 324    0.00015146432556101
 325    0.00013477137467059
 326    0.0010668537539911
 327    -5.0226636144124e-05
 328    8.6709842435991e-06
 329    -6.3801432779091e-05
 330    -8.304322027865e-06
 331    2.497375153219e-05
 332    0.00013096653464223
 333    -0.00038273875414106
 334    7.2077629544938e-05
 335    -3.7491349490842e-05
 336    -8.5520235459299e-05
 337    1.2319729493416e-05
 338    9.5892553608379e-07
 339    2.1439640764931e-05
 340    -5.1981057672375e-05
 341    -3.9803678431455e-05
 342    1.1388406018012e-05
 343    -2.4767040145768e-05
 Sym= A
 Ene=               1
 Spin= Alpha
 Occup=    1.00000
   1    -0.00086844590389504
   2    0.0023578847734173
   3    -0.0076246473093272
   4    -0.0040103552250332
   5      0.01906229414783
   6    -0.0013063233611827
   7    -0.0012713062687058
   8    0.0095194188303189
   9    0.0039590431038726
  10    0.0036758856473495
  11    -0.027786291078485
  12    -0.011580823614952
  13    -0.0006247854067864
  14    0.0044554606832922
  15    0.0023784070009353
  16    -0.0018567910724673
  17     0.026137064396342
  18      0.01097411923175
  19      0.45433725282134
  20     0.059654854750436
  21      0.33261133472805
  22      0.14561213595014
  23      0.27626659073235
  24       0.2910625458581
  25     0.038138038107404
  26      0.21347746876984
  27     0.093582555640834
  28      0.17652676359619
  29      0.10603961235561
  30     0.013684419744422
  31     0.076664879160129
  32     0.032481055556906
  33     0.065449298575885
  34    -0.0052727645232151
  35    0.0006874726914378
  36    -0.0041340404709739
  37    -0.0025541452738413
  38    -0.0031008173594551
  39    0.00078205544292021
  40    0.0011840825345979
  41    0.00063373078534611
  42    0.00064520896641579
  43    0.0012633749268871
  44    4.3334927527291e-05
  45    0.0011304840838768
  46    0.00040381093594299
  47    0.0010202517310567
  48    -0.0018710662861847
  49    -0.0033207164532425
  50    0.0048117466097398
  51    -0.0032790822875499
  52     0.036402848163287
  53     0.023960043300945
  54    -0.0031020544806897
  55     0.039037626437969
  56     0.025721704531947
  57    -0.0083170489593948
  58     0.034062434311562
  59     0.024881072026966
  60    -9.7621335924966e-05
  61    -0.00060819565542095
  62    -0.00016279700537637
  63    0.00015311874365835
  64    -0.00092461646874801
  65    0.00094749190105315
  66    -0.0014078599321943
  67    0.0014975985803389
  68    0.0008682020779046
  69    -0.0015986420700827
  70    8.0426321510521e-05
  71    -0.00026477070146541
  72    7.5190612881828e-05
  73    2.5408256157434e-05
  74    -0.00033580401266968
  75    0.00018821668365555
  76    -0.00015710312848158
  77    -0.00039691989526594
  78    0.0011171697248695
  79    -0.0034099386993011
  80    -0.0017326872053572
  81    -0.00059468095912117
  82    -0.00040926962082729
  83    0.0017676573005282
  84    0.0015720123239027
  85    0.00044376571460529
  86    -0.0050946640065771
  87    -0.0044910403520041
  88    -0.0012277434374403
  89    -2.445591786515e-05
  90    -0.00029781458105938
  91    -0.00038932911580389
  92    -0.0014734845228588
  93    0.0068275732490333
  94    0.0056109151481555
  95    -0.00021011780017287
  96    -0.00023382367765731
  97    8.2517806170013e-05
  98    0.00051438308671561
  99    7.1265667282226e-05
 100    -0.00069671776512624
 101    -0.00016761824507975
 102    -0.00015604850476958
 103    0.00091507355858973
 104    0.00075583222841401
 105    -0.00056836139622943
 106    0.0019956012193274
 107    -0.00090439930392643
 108    -0.00039973422571691
 109    0.0029407726229688
 110     0.002180669893104
 111    0.0005377359565626
 112    0.0014144204035484
 113    -0.00037009910156736
 114    -0.001618302635528
 115    -5.1623027035731e-05
 116    -0.00026964497513635
 117    -0.00010996727726931
 118    0.00014434073684689
 119    -0.00024866856989653
 120    0.00016923907298944
 121    0.0004754106969081
 122    -0.00017477902634964
 123    -0.00017462333821611
 124    0.00099541337231093
 125    -0.00055204505749492
 126    -0.0037861965798036
 127    -0.0029996510009221
 128     0.018887698724376
 129    0.0092457301179704
 130    -0.0015346946471573
 131     0.009660961293891
 132    0.0048458296538627
 133    0.0038275812353797
 134    -0.023988034442377
 135    -0.012304755166256
 136    0.0083442202428254
 137    -0.052536127106565
 138     -0.02495568462119
 139    0.0066759804809334
 140    -0.044806589591297
 141    -0.020820469254011
 142    -0.0023934970755653
 143    0.00033740970393095
 144    -0.0015876415535892
 145    -0.001366106955587
 146    -0.0003711718854276
 147    -0.0022391810283432
 148    0.00012344819869075
 149    -0.00021502061196609
 150    -0.00064326967559685
 151    -0.00032867389185844
 152    0.0011195975098654
 153    -4.9519069301739e-05
 154    -0.00017856007332131
 155    0.00051239421529753
 156    0.00011522763099032
 157    6.6332172067399e-05
 158    -0.00022670240573888
 159    -0.0012563231547103
 160    -0.0010702934795816
 161    0.0074841715913982
 162    -0.010748633023286
 163    -0.0069727828910271
 164    -0.013846668889045
 165     0.011330277666053
 166    -0.0063525651814523
 167    -0.0071217681941723
 168    0.0058466450563435
 169    -0.0032359830583821
 170     0.017756236265437
 171    -0.014645157893717
 172    0.0080336299660807
 173     0.038969333298184
 174    -0.031325396324647
 175     0.017199990045995
 176     0.031949217232091
 177    -0.028448724779779
 178     0.013850683059648
 179    -0.0020748575337224
 180    -0.00031653995078213
 181    0.00057008019455151
 182    0.00024008309672581
 183    -0.0016234892429605
 184    -0.0015640662868631
 185    0.00057741762119978
 186    -0.00053261853711779
 187    0.00066133905190457
 188    -0.00043655556877994
 189    -0.00068829317976396
 190    0.00033135904010582
 191    -0.00020131009464755
 192    0.00023607167163191
 193    -0.00045782779431966
 194    4.1220221789461e-05
 195    0.00042744739382224
 196    0.0019613914311601
 197    0.0016635677043202
 198    -0.011664577375855
 199     0.016490021003886
 200     0.011100086602306
 201      0.01163571259453
 202     0.011756926351928
 203    0.0022573536407551
 204    0.0060010366608944
 205    0.0061466911173253
 206    0.0011461221421618
 207    -0.014973815432576
 208    -0.015423453599425
 209    -0.0029136754729932
 210    -0.032785403444053
 211    -0.033412410075693
 212    -0.0056180724612055
 213    -0.025612323436358
 214    -0.029133837298802
 215    -0.0063110726934642
 216    0.0010865010677319
 217    0.00023925472326444
 218    -0.00042780378958454
 219    0.00041492576294194
 220    -0.0013737759914613
 221    0.00047789431956538
 222    0.00015684185248937
 223    -0.00054345573820978
 224    -0.0010174015973167
 225    -0.00072326093644929
 226    0.00031293006402853
 227    -0.00024873241138775
 228    -0.00051983094115788
 229    0.00011943554710511
 230    -0.00037667649867768
 231    -0.00068004455937624
 232    -1.831719847468e-06
 233    -0.00022705765870242
 234    -0.00021997254621772
 235     0.001344025033174
 236    -0.0013767951388873
 237    -0.0054299721317405
 238    0.0015233101414853
 239    -1.2107224229142e-05
 240    -0.0012298010493616
 241    0.00073840168683372
 242    2.1274449163595e-05
 243    -0.00058690439719712
 244    -0.001753368003147
 245    -9.657666225584e-05
 246    0.0013827034980453
 247    -0.0043608378980191
 248    0.00031498078704564
 249    0.0038391757575876
 250    -0.0029960058281898
 251    0.0010667133645062
 252    0.0042507461465883
 253    0.00012698615293364