[Molden Format]
made by pyscf v[2.2.1]
[Atoms] (AU)
Fe   1   26     3.17068844873907     0.00098706064664     0.12237737881307
O   2   8     0.00000000000000     0.00000000000000    -0.89004350580623
Fe   3   26    -3.17068844873907    -0.00098706064664     0.12237737881307
Cl   4   17     3.53383895113107    -2.07485195383062     3.76228752659000
Cl   5   17     5.54152580550813    -1.85590924879884    -2.78672786652360
Cl   6   17     4.48169216485503     3.92976278472880    -0.95330240907949
Cl   7   17    -3.53383895113107     2.07485195383062     3.76228752659000
Cl   8   17    -5.54152580550813     1.85590924879884    -2.78672786652360
Cl   9   17    -4.48169216485503    -3.92976278472880    -0.95330240907949
[GTO]
1 0
 s    8 1.00
          300784.84637  0.00024103305017787
          45088.970557  0.0018687382457119
          10262.516317  0.0097155134617046
          2905.2897293   0.039479967013317
          946.11487137    0.12842162832271
          339.87832894    0.30457860754832
          131.94425588    0.43465553776779
          52.111494077    0.22742382379948
 s    4 1.00
          329.48839267  -0.024716645792921
          101.92332739   -0.11669599822835
          16.240462745    0.55229779440271
          6.8840675801    0.53539752037712
 s    2 1.00
          10.470693782   -0.37745869768095
          1.7360039648     1.1722622909796
 s    1 1.00
         0.72577288979                   1
 s    1 1.00
         0.11595528203                   1
 s    1 1.00
        0.041968227746                   1
 p    6 1.00
           1585.395997  0.0027395641750272
          375.38006499   0.022167496552173
          120.31816501    0.10364840341367
          44.788749031    0.29703230666936
          17.829278584    0.47773374381763
          7.2247153786    0.27871749884095
 p    3 1.00
          28.143219756  -0.020268742366329
          3.8743241412    0.38603381535444
          1.5410752281    0.67538247288481
 p    1 1.00
          0.5828561525                   1
 p    1 1.00
              0.134915                   1
 d    4 1.00
          61.996675034   0.019497333982305
          17.873732552    0.11922868100386
          6.2744782934    0.37625274789341
          2.3552337175    0.64997843079553
 d    1 1.00
         0.85432239901                   1
 d    1 1.00
         0.27869254413                   1
 d    1 1.00
                 0.091                   1
 f    1 1.00
                 1.598                   1

2 0
 s    6 1.00
          27032.382631  0.00057227335211155
          4052.3871392  0.0044353233492995
           922.3272271   0.023020107706038
          261.24070989   0.092822490667928
          85.354641351    0.29378500009671
          31.035035245    0.67401604501641
 s    2 1.00
          12.260860728    0.63839937025506
          4.9987076005    0.39534587125718
 s    1 1.00
          1.1703108158                   1
 s    1 1.00
         0.46474740994                   1
 s    1 1.00
         0.18504536357                   1
 p    4 1.00
          63.274954801   0.012018332222616
          14.627049379   0.083005421790056
          4.4501223456    0.31991743925964
          1.5275799647    0.70715542916104
 p    1 1.00
         0.52935117943                   1
 p    1 1.00
          0.1747842127                   1
 d    1 1.00
                 2.314                   1
 d    1 1.00
                 0.645                   1
 f    1 1.00
                 1.428                   1

3 0
 s    8 1.00
          300784.84637  0.00024103305017787
          45088.970557  0.0018687382457119
          10262.516317  0.0097155134617046
          2905.2897293   0.039479967013317
          946.11487137    0.12842162832271
          339.87832894    0.30457860754832
          131.94425588    0.43465553776779
          52.111494077    0.22742382379948
 s    4 1.00
          329.48839267  -0.024716645792921
          101.92332739   -0.11669599822835
          16.240462745    0.55229779440271
          6.8840675801    0.53539752037712
 s    2 1.00
          10.470693782   -0.37745869768095
          1.7360039648     1.1722622909796
 s    1 1.00
         0.72577288979                   1
 s    1 1.00
         0.11595528203                   1
 s    1 1.00
        0.041968227746                   1
 p    6 1.00
           1585.395997  0.0027395641750272
          375.38006499   0.022167496552173
          120.31816501    0.10364840341367
          44.788749031    0.29703230666936
          17.829278584    0.47773374381763
          7.2247153786    0.27871749884095
 p    3 1.00
          28.143219756  -0.020268742366329
          3.8743241412    0.38603381535444
          1.5410752281    0.67538247288481
 p    1 1.00
          0.5828561525                   1
 p    1 1.00
              0.134915                   1
 d    4 1.00
          61.996675034   0.019497333982305
          17.873732552    0.11922868100386
          6.2744782934    0.37625274789341
          2.3552337175    0.64997843079553
 d    1 1.00
         0.85432239901                   1
 d    1 1.00
         0.27869254413                   1
 d    1 1.00
                 0.091                   1
 f    1 1.00
                 1.598                   1

4 0
 s    7 1.00
          69507.990945  0.00051457389646325
           10426.15688  0.0039781344806745
          2373.2334061   0.020456178670619
          671.56420071   0.080148102887582
           218.4199979    0.23454770317658
          77.572249714    0.44543368582255
          28.888815277    0.35466842499038
 s    3 1.00
          127.10527185    0.11293688054705
          39.339582961     0.4837351421006
          7.6740679989     -1.229229738981
 s    2 1.00
           3.874562763    0.67296821635762
          1.8385832573    0.34956051409054
 s    1 1.00
         0.50229057542                   1
 s    1 1.00
          0.1796272342                   1
 p    5 1.00
          666.50423284  0.0033502508198275
           157.6424169   0.026763970407523
          50.262520978      0.123626823608
          18.536078105    0.35845787918981
          7.2940532777    0.61677296353714
 p    1 1.00
          2.9433248995                   1
 p    1 1.00
          1.0404970818                   1
 p    1 1.00
          0.3845641508                   1
 p    1 1.00
         0.13069642732                   1
 d    2 1.00
                  4.61    0.18265835045336
                 1.011    0.91329175226681
 d    1 1.00
                 0.339                   1
 f    1 1.00
                 0.706                   1

5 0
 s    7 1.00
          69507.990945  0.00051457389646325
           10426.15688  0.0039781344806745
          2373.2334061   0.020456178670619
          671.56420071   0.080148102887582
           218.4199979    0.23454770317658
          77.572249714    0.44543368582255
          28.888815277    0.35466842499038
 s    3 1.00
          127.10527185    0.11293688054705
          39.339582961     0.4837351421006
          7.6740679989     -1.229229738981
 s    2 1.00
           3.874562763    0.67296821635762
          1.8385832573    0.34956051409054
 s    1 1.00
         0.50229057542                   1
 s    1 1.00
          0.1796272342                   1
 p    5 1.00
          666.50423284  0.0033502508198275
           157.6424169   0.026763970407523
          50.262520978      0.123626823608
          18.536078105    0.35845787918981
          7.2940532777    0.61677296353714
 p    1 1.00
          2.9433248995                   1
 p    1 1.00
          1.0404970818                   1
 p    1 1.00
          0.3845641508                   1
 p    1 1.00
         0.13069642732                   1
 d    2 1.00
                  4.61    0.18265835045336
                 1.011    0.91329175226681
 d    1 1.00
                 0.339                   1
 f    1 1.00
                 0.706                   1

6 0
 s    7 1.00
          69507.990945  0.00051457389646325
           10426.15688  0.0039781344806745
          2373.2334061   0.020456178670619
          671.56420071   0.080148102887582
           218.4199979    0.23454770317658
          77.572249714    0.44543368582255
          28.888815277    0.35466842499038
 s    3 1.00
          127.10527185    0.11293688054705
          39.339582961     0.4837351421006
          7.6740679989     -1.229229738981
 s    2 1.00
           3.874562763    0.67296821635762
          1.8385832573    0.34956051409054
 s    1 1.00
         0.50229057542                   1
 s    1 1.00
          0.1796272342                   1
 p    5 1.00
          666.50423284  0.0033502508198275
           157.6424169   0.026763970407523
          50.262520978      0.123626823608
          18.536078105    0.35845787918981
          7.2940532777    0.61677296353714
 p    1 1.00
          2.9433248995                   1
 p    1 1.00
          1.0404970818                   1
 p    1 1.00
          0.3845641508                   1
 p    1 1.00
         0.13069642732                   1
 d    2 1.00
                  4.61    0.18265835045336
                 1.011    0.91329175226681
 d    1 1.00
                 0.339                   1
 f    1 1.00
                 0.706                   1

7 0
 s    7 1.00
          69507.990945  0.00051457389646325
           10426.15688  0.0039781344806745
          2373.2334061   0.020456178670619
          671.56420071   0.080148102887582
           218.4199979    0.23454770317658
          77.572249714    0.44543368582255
          28.888815277    0.35466842499038
 s    3 1.00
          127.10527185    0.11293688054705
          39.339582961     0.4837351421006
          7.6740679989     -1.229229738981
 s    2 1.00
           3.874562763    0.67296821635762
          1.8385832573    0.34956051409054
 s    1 1.00
         0.50229057542                   1
 s    1 1.00
          0.1796272342                   1
 p    5 1.00
          666.50423284  0.0033502508198275
           157.6424169   0.026763970407523
          50.262520978      0.123626823608
          18.536078105    0.35845787918981
          7.2940532777    0.61677296353714
 p    1 1.00
          2.9433248995                   1
 p    1 1.00
          1.0404970818                   1
 p    1 1.00
          0.3845641508                   1
 p    1 1.00
         0.13069642732                   1
 d    2 1.00
                  4.61    0.18265835045336
                 1.011    0.91329175226681
 d    1 1.00
                 0.339                   1
 f    1 1.00
                 0.706                   1

8 0
 s    7 1.00
          69507.990945  0.00051457389646325
           10426.15688  0.0039781344806745
          2373.2334061   0.020456178670619
          671.56420071   0.080148102887582
           218.4199979    0.23454770317658
          77.572249714    0.44543368582255
          28.888815277    0.35466842499038
 s    3 1.00
          127.10527185    0.11293688054705
          39.339582961     0.4837351421006
          7.6740679989     -1.229229738981
 s    2 1.00
           3.874562763    0.67296821635762
          1.8385832573    0.34956051409054
 s    1 1.00
         0.50229057542                   1
 s    1 1.00
          0.1796272342                   1
 p    5 1.00
          666.50423284  0.0033502508198275
           157.6424169   0.026763970407523
          50.262520978      0.123626823608
          18.536078105    0.35845787918981
          7.2940532777    0.61677296353714
 p    1 1.00
          2.9433248995                   1
 p    1 1.00
          1.0404970818                   1
 p    1 1.00
          0.3845641508                   1
 p    1 1.00
         0.13069642732                   1
 d    2 1.00
                  4.61    0.18265835045336
                 1.011    0.91329175226681
 d    1 1.00
                 0.339                   1
 f    1 1.00
                 0.706                   1

9 0
 s    7 1.00
          69507.990945  0.00051457389646325
           10426.15688  0.0039781344806745
          2373.2334061   0.020456178670619
          671.56420071   0.080148102887582
           218.4199979    0.23454770317658
          77.572249714    0.44543368582255
          28.888815277    0.35466842499038
 s    3 1.00
          127.10527185    0.11293688054705
          39.339582961     0.4837351421006
          7.6740679989     -1.229229738981
 s    2 1.00
           3.874562763    0.67296821635762
          1.8385832573    0.34956051409054
 s    1 1.00
         0.50229057542                   1
 s    1 1.00
          0.1796272342                   1
 p    5 1.00
          666.50423284  0.0033502508198275
           157.6424169   0.026763970407523
          50.262520978      0.123626823608
          18.536078105    0.35845787918981
          7.2940532777    0.61677296353714
 p    1 1.00
          2.9433248995                   1
 p    1 1.00
          1.0404970818                   1
 p    1 1.00
          0.3845641508                   1
 p    1 1.00
         0.13069642732                   1
 d    2 1.00
                  4.61    0.18265835045336
                 1.011    0.91329175226681
 d    1 1.00
                 0.339                   1
 f    1 1.00
                 0.706                   1

[5d]
[7f]
[9g]

[MO]
 Sym= A
 Ene=               0
 Spin= Alpha
 Occup=    1.00000
   1    0.0030738341818051
   2    -0.012989519813033
   3      0.01619048957054
   4    0.0084449897942027
   5     0.045708660520052
   6    -0.0091138979293331
   7    -0.0081338240288306
   8    0.0014424219948151
   9    0.0023318703750337
  10     0.019661907150037
  11    -0.0038017676861614
  12    -0.0058163023470722
  13     0.008355817573989
  14    -0.0013507743518669
  15    -0.0022972579260453
  16     0.010657564694268
  17    0.00058776575857518
  18    0.00063864483994484
  19    0.0023581827869228
  20    -0.0047760361941376
  21    -0.0020033744193533
  22    -0.0040910861192289
  23    -0.00065768397004634
  24    0.0019576792805615
  25    -0.0036236538956803
  26      -0.0015403573851
  27    -0.0032473563362161
  28    -0.00055811761970355
  29    0.0010677565545287
  30    -0.0035900713448087
  31    -0.0015763810830367
  32    -0.0025841212972888
  33    -0.00019156500175238
  34    -9.707855356207e-05
  35    0.0007479801623872
  36    0.00029970680024263
  37    -0.00038887674478911
  38    0.00035819314662662
  39    0.00026475363583711
  40    0.0001619310437548
  41    -0.00043363468416739
  42    -0.00010262926881675
  43    0.00010517224172837
  44    -0.00024975429072028
  45    -0.00017387159602647
  46    -0.00093973170770297
  47    -0.0022020225684094
  48    0.0021299055637804
  49     0.006646443399492
  50    -0.0023580827785583
  51    -8.1506205521996e-16
  52    3.4488035634575e-16
  53    -0.001493742287392
  54    -6.7550570318516e-16
  55    2.1990056790537e-16
  56    -0.0010184417789828
  57    -1.2413480096713e-15
  58    6.825459004956e-16
  59    -0.0018226099169418
  60    2.0909766162683e-05
  61    -1.0693157822558e-17
  62    -7.0868405276026e-20
  63    -5.5883485735262e-05
  64    2.9682020798569e-05
  65    -0.00041034296347003
  66    -6.3720331530195e-20
  67    3.2279196591671e-18
  68    0.0006116369181019
  69    -7.2070797075653e-05
  70    -1.3112300864545e-05
  71    1.1923330973954e-17
  72    -1.1184258746842e-18
  73    1.1234066990549e-05
  74    2.3945440195886e-06
  75    -1.2455240893046e-17
  76    3.9587870630467e-18
  77    0.0030738341818043
  78     -0.01298951981303
  79     0.016190489570535
  80    0.0084449897941999
  81     0.045708660520041
  82    -0.0091138979293296
  83    0.0081338240288288
  84    -0.0014424219948123
  85    0.0023318703750356
  86    -0.019661907150033
  87     0.003801767686154
  88    -0.0058163023470759
  89    -0.0083558175739873
  90    0.0013507743518638
  91    -0.002297257926047
  92    -0.010657564694266
  93    -0.00058776575857789
  94    0.00063864483994278
  95    0.0023581827869201
  96    0.0047760361941366
  97    0.0020033744193523
  98    -0.0040910861192281
  99    -0.00065768397004473
 100    0.0019576792805593
 101    0.0036236538956795
 102    0.0015403573850992
 103    -0.0032473563362155
 104    -0.00055811761970227
 105    0.0010677565545271
 106    0.0035900713448084
 107     0.001576381083036
 108    -0.0025841212972883
 109    -0.00019156500175138
 110    -9.7078553562287e-05
 111    -0.00074798016238721
 112    -0.00029970680024226
 113    -0.00038887674478943
 114    0.00035819314662687
 115    0.00026475363583704
 116    -0.00016193104375472
 117    0.00043363468416724
 118    -0.00010262926881669
 119    0.00010517224172833
 120    0.00024975429072028
 121    0.00017387159602647
 122    0.00024196042489641
 123    0.00013664415692143
 124    -0.0010050161426111
 125    -0.00074539262075564
 126    0.00073711504952157
 127    -0.0060482363288072
 128     -0.11706720923223
 129       0.2292697821849
 130    -0.0029628839976486
 131     -0.05812557197286
 132      0.11381322182772
 133    -0.00026772371905875
 134    -0.0022583334878069
 135    0.0043617432743336
 136    0.0012876265805709
 137     0.018334823892474
 138    -0.035429322983883
 139    -0.00085821590021155
 140    0.0098289496941825
 141    -0.018824031362429
 142    0.00085273440346209
 143    -4.0240046598044e-05
 144    -0.00086830585654953
 145    -0.00029063362421558
 146    1.5339305703504e-05
 147    0.0020191572506158
 148    6.650562048716e-05
 149    -0.0026782523994019
 150    -0.0007344088109492
 151    -7.8823805220143e-05
 152    -0.00029474735403244
 153    -2.6859465107212e-05
 154    0.00077215139166283
 155    0.00040878501655174
 156    3.5670616663062e-05
 157    1.1469727230106e-05
 158    -0.0001016534797562
 159    0.00059149623786157
 160    0.00040700061323283
 161    -0.0029656087724715
 162    0.0019225106242538
 163    0.0010610258225893
 164      0.15410041989607
 165     -0.16431145262277
 166     -0.24850237744396
 167     0.076510443235176
 168    -0.081555324544387
 169     -0.12339562319124
 170    0.0029665768887536
 171    -0.003349027240018
 172    -0.0048042191053295
 173     -0.02386873132515
 174     0.024650038859166
 175     0.038101045299786
 176    -0.013358813746184
 177     0.013163181071895
 178     0.021177451875891
 179     0.000435863213434
 180    -0.00095942013635594
 181    0.00092423054802429
 182    -6.1589596383551e-05
 183    -0.00064146074613298
 184    0.0014997480327876
 185    -0.0030857541612004
 186    0.0026553545143308
 187    0.00033717758540255
 188    -0.0018377882213288
 189    -0.00018931620033355
 190    -0.00065552375461981
 191    0.00053663122716399
 192    0.00014197999709777
 193    -0.00081930232757603
 194    0.00018049969169515
 195    0.00027651022256893
 196    0.0005490659583256
 197    0.00038242588055638
 198    -0.0027899426569233
 199    0.0021359140655488
 200    0.00069987438235185
 201      0.04733617678831
 202      0.27940107132267
 203    -0.064525018721836
 204     0.023544446247016
 205       0.1387214245482
 206      -0.0320904130181
 207    0.00071195291233609
 208    0.0055908346510157
 209    -0.0011355212058289
 210    -0.0071947109536582
 211    -0.041965707640946
 212     0.010147369317094
 213    -0.0049755052860656
 214    -0.022550111014329
 215    0.0061759615631835
 216    -0.00053844426861348
 217    -0.00011550295095255
 218    -0.00045610522962027
 219    -0.0010626812352922
 220    0.00042003033799233
 221    -0.0012798363310202
 222    -0.00045561015039593
 223    -0.001907229998343
 224    -0.0025195929792064
 225    0.0013172916054625
 226    -0.00034739109700524
 227    6.9817382868367e-05
 228    0.00032243969391422
 229    -0.00041115963896784
 230    0.00024568263661785
 231    0.00047990719120317
 232    0.00051560691087635
 233    0.00024196042489656
 234    0.00013664415692139
 235    -0.0010050161426107
 236    -0.00074539262075544
 237    0.00073711504952105
 238    0.0060482363288042
 239      0.11706720923216
 240      0.22926978218478
 241    0.0029628839976471
 242     0.058125571972822
 243      0.11381322182767
 244    0.00026772371905874
 245    0.0022583334878056
 246     0.004361743274332
 247    -0.0012876265805705
 248    -0.018334823892462
 249    -0.035429322983864
 250    0.00085821590021191
 251    -0.0098289496941753
 252    -0.018824031362418
 253    0.00085273440346173
 254    4.0240046598048e-05
 255    0.0008683058565491
 256    -0.00029063362421545
 257    1.5339305703523e-05
 258    0.0020191572506146
 259    -6.6505620487121e-05
 260    0.0026782523994004
 261    -0.00073440881094866
 262    -7.8823805220127e-05
 263    -0.00029474735403229
 264    2.685946510717e-05
 265    -0.00077215139166241
 266    0.00040878501655151
 267    3.5670616663024e-05
 268    -1.1469727230088e-05
 269    0.00010165347975614
 270    0.00059149623786143
 271    0.00040700061323272
 272    -0.0029656087724708
 273    0.0019225106242534
 274    0.0010610258225889
 275     -0.15410041989602
 276      0.16431145262275
 277     -0.24850237744389
 278    -0.076510443235151
 279     0.081555324544374
 280     -0.12339562319121
 281    -0.0029665768887526
 282    0.0033490272400177
 283    -0.0048042191053278
 284     0.023868731325143
 285    -0.024650038859162
 286     0.038101045299776
 287      0.01335881374618
 288    -0.013163181071892
 289     0.021177451875886
 290    0.00043586321343383
 291    0.00095942013635568
 292    -0.00092423054802413
 293    -6.1589596383619e-05
 294    -0.00064146074613286
 295    0.0014997480327872
 296    0.0030857541611995
 297    -0.0026553545143302
 298    0.00033717758540244
 299    -0.0018377882213284
 300    -0.00018931620033351
 301    0.00065552375461962
 302    -0.00053663122716386
 303    0.0001419799970977
 304    -0.00081930232757583
 305    -0.00018049969169512
 306    -0.00027651022256885
 307    0.00054906595832551
 308    0.00038242588055623
 309    -0.0027899426569225
 310    0.0021359140655483
 311    0.00069987438235099
 312    -0.047336176788305
 313     -0.27940107132267
 314     -0.06452501872184
 315    -0.023544446247013
 316      -0.1387214245482
 317    -0.032090413018102
 318    -0.00071195291233602
 319    -0.0055908346510144
 320    -0.0011355212058292
 321    0.0071947109536574
 322     0.041965707640948
 323     0.010147369317094
 324     0.004975505286065
 325     0.022550111014331
 326    0.0061759615631836
 327    -0.00053844426861345
 328    0.00011550295095255
 329    0.00045610522962028
 330    -0.0010626812352922
 331    0.00042003033799233
 332    -0.0012798363310203
 333    0.00045561015039595
 334    0.0019072299983431
 335    -0.0025195929792065
 336    0.0013172916054626
 337    -0.00034739109700525
 338    -6.9817382868377e-05
 339    -0.00032243969391424
 340    -0.00041115963896786
 341    0.00024568263661786
 342    -0.0004799071912032
 343    -0.00051560691087637
 Sym= A
 Ene=               1
 Spin= Alpha
 Occup=    1.00000
   1    -0.0032263565305755
   2     0.013385179341491
   3    -0.017605862573841
   4    -0.0094666871935593
   5    -0.047050554527499
   6     0.014518986051402
   7    0.0076499289020504
   8    -0.0014524272512426
   9    -0.0026529470555818
  10    -0.018189578937934
  11    0.0038129934604264
  12    0.0067690930936233
  13    -0.0081854839529277
  14    0.0013983387504564
  15    0.0021773096589197
  16    -0.010987904427264
  17    -0.00068296295532921
  18    0.0010896245895889
  19    -0.0027938420336259
  20    0.0063444918448234
  21    0.0018843235180675
  22    0.0055802172197233
  23    0.00056033662083347
  24    -0.0022457848435107
  25    0.0049833221007934
  26    0.0014417107419404
  27    0.0043411715962556
  28    0.00049802128022467
  29    -0.0012163060383757
  30    0.0037071892134548
  31    0.0015358046420542
  32    0.0031619254869732
  33    9.8800172156635e-05
  34    5.9533988297989e-05
  35    -0.0013011914215475
  36    -0.00088544590933551
  37    -0.00065864477703206
  38    -0.00028134943320585
  39    -0.00022200150661194
  40    -0.00015774372525173
  41    0.00043005953423405
  42    4.1789741089384e-05
  43    -0.00010315380723643
  44    0.00019628928128522
  45    0.00017937281259233
  46    -3.6213869751225e-17
  47    -7.4393464589549e-17
  48    -1.8279376891596e-17
  49    5.0294803858681e-16
  50    -1.0318676625979e-15
  51    0.0063220026341911
  52    0.00032646987731577
  53    -7.9761837162015e-16
  54    0.0044422806571017
  55    0.00039893541245844
  56    -7.2735377644621e-16
  57     0.012676961440219
  58    0.00034255447102883
  59    -1.1245043646414e-15
  60    1.2034278656156e-17
  61    5.8452525180789e-05
  62    -2.1449240966919e-06
  63    -1.0847602649885e-17
  64    1.0460862163748e-17
  65    -8.9702644084299e-17
  66    0.00031153620201864
  67    4.8119148845561e-05
  68    4.144058914246e-17
  69    -1.8551799253502e-18
  70    8.1103902228249e-18
  71    -6.0218878912637e-05
  72    1.5230551647273e-06
  73    -1.4859581118735e-17
  74    8.319593877992e-20
  75    9.6900587089945e-05
  76    5.0194846357318e-06
  77    0.0032263565305763
  78    -0.013385179341494
  79     0.017605862573845
  80    0.0094666871935613
  81      0.04705055452751
  82    -0.014518986051405
  83    0.0076499289020522
  84    -0.0014524272512426
  85    0.0026529470555824
  86    -0.018189578937938
  87    0.0038129934604266
  88    -0.0067690930936247
  89    -0.0081854839529297
  90    0.0013983387504564
  91    -0.0021773096589202
  92    -0.010987904427266
  93    -0.00068296295533049
  94    -0.0010896245895888
  95    0.0027938420336267
  96    0.0063444918448252
  97    0.0018843235180685
  98    -0.0055802172197243
  99    -0.00056033662083339
 100    0.0022457848435114
 101    0.0049833221007947
 102    0.0014417107419412
 103    -0.0043411715962565
 104    -0.00049802128022465
 105    0.0012163060383759
 106    0.0037071892134563
 107    0.0015358046420551
 108    -0.0031619254869736
 109    -9.8800172156377e-05
 110    -5.9533988298178e-05
 111    -0.0013011914215475
 112    -0.00088544590933587
 113    0.00065864477703202
 114    0.00028134943320583
 115    0.00022200150661201
 116    -0.00015774372525173
 117    0.00043005953423415
 118    -4.1789741089453e-05
 119    0.00010315380723647
 120    0.00019628928128523
 121    0.0001793728125924
 122    -0.00028673157833649
 123    -0.00017438451965742
 124    0.0012751833931798
 125    0.00040618696750743
 126    -0.0018798989880547
 127     0.016572709548232
 128      0.11560008222752
 129     -0.22577135460402
 130    0.0082620478363959
 131     0.057402635650999
 132     -0.11207627635234
 133    9.1439117464953e-05
 134    0.0021845989767122
 135    -0.0042756247540311
 136    -0.0022487897056402
 137    -0.018138698893684
 138     0.034973120520556
 139    -0.0017460068632298
 140    -0.0098522237355417
 141     0.019009840160829
 142    -0.00079620557200333
 143     5.43287333654e-05
 144    0.00085669098561713
 145    0.00023566819066469
 146    -2.7464649863291e-05
 147    -0.0021318569516407
 148    0.00010811088416445
 149    0.0025789057556346
 150    0.00095376963411524
 151    1.7152445281896e-05
 152    0.00029568867050722
 153    2.4031788464199e-05
 154    -0.00075487316067102
 155    -0.00041270756602716
 156    -2.4704896917523e-05
 157    -2.1299699077723e-05
 158    0.0001096911890264
 159    -0.00066877127804619
 160    -0.00048410766288621
 161    0.0034140925732136
 162    -0.0024172546872026
 163    -0.0020370243769877
 164     -0.14969094316268
 165      0.16671738954395
 166      0.25365145292502
 167    -0.074312577614233
 168     0.082751000843633
 169      0.12595979015854
 170    -0.0029774177186184
 171      0.00336176313875
 172    0.0048058779800655
 173     0.023193363134268
 174    -0.025057392601899
 175    -0.038911129218437
 176     0.012424381630242
 177    -0.013268335342869
 178    -0.021858373965298
 179    -0.0004480567345396
 180    0.0009582516950034
 181    -0.0009616028269683
 182    7.6158999417489e-05
 183    0.00064150450736609
 184    -0.0016729822854097
 185    0.0029792645899457
 186    -0.0025938775375617
 187    -0.00013628071757072
 188    0.0016733398840686
 189    0.00016852692734683
 190    0.00068076061766649
 191    -0.00055878966870739
 192    -0.00011937009582462
 193    0.00082115079967541
 194    -0.00019362127903928
 195    -0.00025538756963101
 196    -0.0006280907495442
 197    -0.0004630987434229
 198    0.0032503373529568
 199    -0.0025921647527637
 200    -0.002348485277131
 201    -0.037577443193427
 202     -0.28033528259695
 203     0.065879289649742
 204    -0.018656889196087
 205     -0.13919830824501
 206      0.03275873522443
 207    -0.00077956107213884
 208    -0.0055421337315055
 209    0.0011494233526687
 210    0.0059864426605258
 211     0.041985746702599
 212    -0.010416853127579
 213    0.0032548136430297
 214     0.022935904958745
 215    -0.0063344162856782
 216    0.00054426866019699
 217    0.00011879161884238
 218    0.00047212019688357
 219    0.0010795327335168
 220    -0.00036998169639109
 221    0.0011112204816511
 222    0.00042762606942846
 223    0.0018946966004746
 224    0.0025052811060586
 225    -0.0010923328703922
 226    0.00034495293736035
 227    -5.6992764637558e-05
 228    -0.0003064057571829
 229    0.00041827842972167
 230    -0.00024049128770247
 231    -0.00044736340217163
 232    -0.0005289098887298
 233    0.00028673157833674
 234    0.00017438451965748
 235    -0.0012751833931802
 236    -0.00040618696750739
 237    0.0018798989880554
 238     0.016572709548188
 239      0.11560008222755
 240      0.22577135460407
 241    0.0082620478363736
 242     0.057402635651012
 243      0.11207627635237
 244    9.1439117465189e-05
 245    0.0021845989767127
 246     0.004275624754032
 247    -0.002248789705632
 248    -0.018138698893688
 249    -0.034973120520564
 250    -0.0017460068632236
 251    -0.0098522237355439
 252    -0.019009840160833
 253    0.00079620557200351
 254    5.4328733365358e-05