[Molden Format]
made by pyscf v[2.2.1]
[Atoms] (AU)
Fe   1   26    10.35569916261654     2.17318504324982   -15.17450078025744
S   2   16     7.65339080448850    -1.15273293598469   -16.53510358994429
S   3   16    14.15404867299231     0.79368497231733   -17.08312416606816
Fe   4   26    11.41394579237297    -2.30546587196938   -18.19806257956155
S   5   16    10.33680190137089     2.36215765570633   -10.54467177507304
S   6   16     8.74943195673624     6.19830168857340   -16.57289811243559
S   7   16    10.86592521624911    -2.83458918684759   -22.77119980100900
S   8   16    12.96352121451632    -6.44396608476686   -16.74297346364645
C   9   6    10.41239094635349     8.40928125431453   -14.19184319548361
H   10   1    12.26432254842725     9.12737718164925   -14.96663090655529
H   11   1     9.20296622663185    10.07224024393178   -13.70051440309670
H   12   1    10.80923343251215     7.25654831832984   -12.45329516088376
C   13   6     6.80301404843422     3.21253441176060   -10.46908273009044
H   14   1     5.68807563494084     1.51178089965205   -10.99820604496866
H   15   1     6.19830168857340     3.89283581660403    -8.54156208303408
H   16   1     6.46286334601251     4.68652078892135   -11.92417184600554
C   17   6     9.84547310898397    -7.97464424566456   -17.87680913838549
H   18   1     9.63760323528181    -7.57780175950590   -19.93661061416140
H   19   1     9.84547310898397   -10.05334298268613   -17.49886391347247
H   20   1     8.25810316434932    -7.02978118338203   -16.87525429236600
C   21   6    14.41861033043142    -3.49599333044536   -23.13024776467636
H   22   1    14.92883638406399    -3.89283581660403   -25.15225471796098
H   23   1    15.49575422143351    -1.81413707958246   -22.41215183734163
H   24   1    14.90993912281834    -5.14005505881697   -21.90192578370907
[GTO]
1 0
 s    6 1.00
          60923.640643  0.0017552243692958
          9147.8893982   0.013449023284001
          2081.3505927   0.066678874640978
          587.55977067    0.23176348548844
           191.0904399    0.46945550248188
          65.732730112     0.3596824938678
 s    3 1.00
          127.25891928   -0.10723431835929
           14.83091301    0.62971616328466
          6.0653307408    0.44472317896179
 s    3 1.00
           10.44994371   -0.21694289195548
          1.7245228003    0.69457867408393
         0.71772177325    0.43298308896347
 s    1 1.00
        0.091449828308                   1
 s    1 1.00
        0.033706691021                   1
 p    5 1.00
          773.43750995  0.0091440529992506
          182.15149714   0.067887577136571
          57.547272758    0.26167978878504
          20.614988935    0.51088040113251
           7.634855789    0.33235475570224
 p    3 1.00
           3.871932799    0.33193859098144
          1.4924724132     0.5553666555499
         0.56061284958    0.23106034201617
 p    1 1.00
              0.134915                   1
 d    4 1.00
          38.968133419   0.033335938558743
          10.800067078    0.17766212505983
          3.6136457999      0.441281781625
          1.2129967888    0.57089200490673
 d    1 1.00
          0.3652439317                   1
 f    1 1.00
                 1.598                   1

2 0
 s    5 1.00
           9184.930301  -0.0054729466134731
          1381.5105503  -0.040954402155135
           313.8714758   -0.18475828956188
          88.053870623   -0.47567280643953
          27.039914905   -0.43495153584169
 s    3 1.00
          45.648731303  -0.091904045808942
          4.9664522326    0.55698777214497
          2.0116242047     0.5111546829846
 s    1 1.00
         0.35661077013                   1
 s    1 1.00
         0.13507221477                   1
 p    5 1.00
          261.98233439  -0.009183054659266
          61.306894736   -0.06590222652599
          19.103729887   -0.24587784518735
          6.6567720378    -0.4823147107602
          2.3959635161   -0.38956314351423
 p    1 1.00
         0.61776161679                   1
 p    1 1.00
         0.16993376871                   1
 d    1 1.00
                  0.55                   1

3 0
 s    5 1.00
           9184.930301  -0.0054729466134731
          1381.5105503  -0.040954402155135
           313.8714758   -0.18475828956188
          88.053870623   -0.47567280643953
          27.039914905   -0.43495153584169
 s    3 1.00
          45.648731303  -0.091904045808942
          4.9664522326    0.55698777214497
          2.0116242047     0.5111546829846
 s    1 1.00
         0.35661077013                   1
 s    1 1.00
         0.13507221477                   1
 p    5 1.00
          261.98233439  -0.009183054659266
          61.306894736   -0.06590222652599
          19.103729887   -0.24587784518735
          6.6567720378    -0.4823147107602
          2.3959635161   -0.38956314351423
 p    1 1.00
         0.61776161679                   1
 p    1 1.00
         0.16993376871                   1
 d    1 1.00
                  0.55                   1

4 0
 s    6 1.00
          60923.640643  0.0017552243692958
          9147.8893982   0.013449023284001
          2081.3505927   0.066678874640978
          587.55977067    0.23176348548844
           191.0904399    0.46945550248188
          65.732730112     0.3596824938678
 s    3 1.00
          127.25891928   -0.10723431835929
           14.83091301    0.62971616328466
          6.0653307408    0.44472317896179
 s    3 1.00
           10.44994371   -0.21694289195548
          1.7245228003    0.69457867408393
         0.71772177325    0.43298308896347
 s    1 1.00
        0.091449828308                   1
 s    1 1.00
        0.033706691021                   1
 p    5 1.00
          773.43750995  0.0091440529992506
          182.15149714   0.067887577136571
          57.547272758    0.26167978878504
          20.614988935    0.51088040113251
           7.634855789    0.33235475570224
 p    3 1.00
           3.871932799    0.33193859098144
          1.4924724132     0.5553666555499
         0.56061284958    0.23106034201617
 p    1 1.00
              0.134915                   1
 d    4 1.00
          38.968133419   0.033335938558743
          10.800067078    0.17766212505983
          3.6136457999      0.441281781625
          1.2129967888    0.57089200490673
 d    1 1.00
          0.3652439317                   1
 f    1 1.00
                 1.598                   1

5 0
 s    5 1.00
           9184.930301  -0.0054729466134731
          1381.5105503  -0.040954402155135
           313.8714758   -0.18475828956188
          88.053870623   -0.47567280643953
          27.039914905   -0.43495153584169
 s    3 1.00
          45.648731303  -0.091904045808942
          4.9664522326    0.55698777214497
          2.0116242047     0.5111546829846
 s    1 1.00
         0.35661077013                   1
 s    1 1.00
         0.13507221477                   1
 p    5 1.00
          261.98233439  -0.009183054659266
          61.306894736   -0.06590222652599
          19.103729887   -0.24587784518735
          6.6567720378    -0.4823147107602
          2.3959635161   -0.38956314351423
 p    1 1.00
         0.61776161679                   1
 p    1 1.00
         0.16993376871                   1
 d    1 1.00
                  0.55                   1

6 0
 s    5 1.00
           9184.930301  -0.0054729466134731
          1381.5105503  -0.040954402155135
           313.8714758   -0.18475828956188
          88.053870623   -0.47567280643953
          27.039914905   -0.43495153584169
 s    3 1.00
          45.648731303  -0.091904045808942
          4.9664522326    0.55698777214497
          2.0116242047     0.5111546829846
 s    1 1.00
         0.35661077013                   1
 s    1 1.00
         0.13507221477                   1
 p    5 1.00
          261.98233439  -0.009183054659266
          61.306894736   -0.06590222652599
          19.103729887   -0.24587784518735
          6.6567720378    -0.4823147107602
          2.3959635161   -0.38956314351423
 p    1 1.00
         0.61776161679                   1
 p    1 1.00
         0.16993376871                   1
 d    1 1.00
                  0.55                   1

7 0
 s    5 1.00
           9184.930301  -0.0054729466134731
          1381.5105503  -0.040954402155135
           313.8714758   -0.18475828956188
          88.053870623   -0.47567280643953
          27.039914905   -0.43495153584169
 s    3 1.00
          45.648731303  -0.091904045808942
          4.9664522326    0.55698777214497
          2.0116242047     0.5111546829846
 s    1 1.00
         0.35661077013                   1
 s    1 1.00
         0.13507221477                   1
 p    5 1.00
          261.98233439  -0.009183054659266
          61.306894736   -0.06590222652599
          19.103729887   -0.24587784518735
          6.6567720378    -0.4823147107602
          2.3959635161   -0.38956314351423
 p    1 1.00
         0.61776161679                   1
 p    1 1.00
         0.16993376871                   1
 d    1 1.00
                  0.55                   1

8 0
 s    5 1.00
           9184.930301  -0.0054729466134731
          1381.5105503  -0.040954402155135
           313.8714758   -0.18475828956188
          88.053870623   -0.47567280643953
          27.039914905   -0.43495153584169
 s    3 1.00
          45.648731303  -0.091904045808942
          4.9664522326    0.55698777214497
          2.0116242047     0.5111546829846
 s    1 1.00
         0.35661077013                   1
 s    1 1.00
         0.13507221477                   1
 p    5 1.00
          261.98233439  -0.009183054659266
          61.306894736   -0.06590222652599
          19.103729887   -0.24587784518735
          6.6567720378    -0.4823147107602
          2.3959635161   -0.38956314351423
 p    1 1.00
         0.61776161679                   1
 p    1 1.00
         0.16993376871                   1
 d    1 1.00
                  0.55                   1

9 0
 s    5 1.00
          1238.4016938  0.0055173650481097
          186.29004992   0.041088828555946
          42.251176346     0.1822538212649
          11.676557932    0.46828459437429
          3.5930506482    0.44575817336002
 s    1 1.00
         0.40245147363                   1
 s    1 1.00
         0.13090182668                   1
 p    3 1.00
          9.4680970621   0.056888332011037
          2.0103545142    0.31294059336471
         0.54771004707    0.76065016509135
 p    1 1.00
         0.15268613795                   1
 d    1 1.00
                   0.8                   1

10 0
 s    3 1.00
             13.010701   0.033485484812989
             1.9622572    0.23472187088125
            0.44453796    0.81377028525955
 s    1 1.00
            0.12194962                   1
 p    1 1.00
                   0.8                   1

11 0
 s    3 1.00
             13.010701   0.033485484812989
             1.9622572    0.23472187088125
            0.44453796    0.81377028525955
 s    1 1.00
            0.12194962                   1
 p    1 1.00
                   0.8                   1

12 0
 s    3 1.00
             13.010701   0.033485484812989
             1.9622572    0.23472187088125
            0.44453796    0.81377028525955
 s    1 1.00
            0.12194962                   1
 p    1 1.00
                   0.8                   1

13 0
 s    5 1.00
          1238.4016938  0.0055173650481097
          186.29004992   0.041088828555946
          42.251176346     0.1822538212649
          11.676557932    0.46828459437429
          3.5930506482    0.44575817336002
 s    1 1.00
         0.40245147363                   1
 s    1 1.00
         0.13090182668                   1
 p    3 1.00
          9.4680970621   0.056888332011037
          2.0103545142    0.31294059336471
         0.54771004707    0.76065016509135
 p    1 1.00
         0.15268613795                   1
 d    1 1.00
                   0.8                   1

14 0
 s    3 1.00
             13.010701   0.033485484812989
             1.9622572    0.23472187088125
            0.44453796    0.81377028525955
 s    1 1.00
            0.12194962                   1
 p    1 1.00
                   0.8                   1

15 0
 s    3 1.00
             13.010701   0.033485484812989
             1.9622572    0.23472187088125
            0.44453796    0.81377028525955
 s    1 1.00
            0.12194962                   1
 p    1 1.00
                   0.8                   1

16 0
 s    3 1.00
             13.010701   0.033485484812989
             1.9622572    0.23472187088125
            0.44453796    0.81377028525955
 s    1 1.00
            0.12194962                   1
 p    1 1.00
                   0.8                   1

17 0
 s    5 1.00
          1238.4016938  0.0055173650481097
          186.29004992   0.041088828555946
          42.251176346     0.1822538212649
          11.676557932    0.46828459437429
          3.5930506482    0.44575817336002
 s    1 1.00
         0.40245147363                   1
 s    1 1.00
         0.13090182668                   1
 p    3 1.00
          9.4680970621   0.056888332011037
          2.0103545142    0.31294059336471
         0.54771004707    0.76065016509135
 p    1 1.00
         0.15268613795                   1
 d    1 1.00
                   0.8                   1

18 0
 s    3 1.00
             13.010701   0.033485484812989
             1.9622572    0.23472187088125
            0.44453796    0.81377028525955
 s    1 1.00
            0.12194962                   1
 p    1 1.00
                   0.8                   1

19 0
 s    3 1.00
             13.010701   0.033485484812989
             1.9622572    0.23472187088125
            0.44453796    0.81377028525955
 s    1 1.00
            0.12194962                   1
 p    1 1.00
                   0.8                   1

20 0
 s    3 1.00
             13.010701   0.033485484812989
             1.9622572    0.23472187088125
            0.44453796    0.81377028525955
 s    1 1.00
            0.12194962                   1
 p    1 1.00
                   0.8                   1

21 0
 s    5 1.00
          1238.4016938  0.0055173650481097
          186.29004992   0.041088828555946
          42.251176346     0.1822538212649
          11.676557932    0.46828459437429
          3.5930506482    0.44575817336002
 s    1 1.00
         0.40245147363                   1
 s    1 1.00
         0.13090182668                   1
 p    3 1.00
          9.4680970621   0.056888332011037
          2.0103545142    0.31294059336471
         0.54771004707    0.76065016509135
 p    1 1.00
         0.15268613795                   1
 d    1 1.00
                   0.8                   1

22 0
 s    3 1.00
             13.010701   0.033485484812989
             1.9622572    0.23472187088125
            0.44453796    0.81377028525955
 s    1 1.00
            0.12194962                   1
 p    1 1.00
                   0.8                   1

23 0
 s    3 1.00
             13.010701   0.033485484812989
             1.9622572    0.23472187088125
            0.44453796    0.81377028525955
 s    1 1.00
            0.12194962                   1
 p    1 1.00
                   0.8                   1

24 0
 s    3 1.00
             13.010701   0.033485484812989
             1.9622572    0.23472187088125
            0.44453796    0.81377028525955
 s    1 1.00
            0.12194962                   1
 p    1 1.00
                   0.8                   1

[5d]
[7f]
[9g]

[MO]
 Sym= A
 Ene=               0
 Spin= Alpha
 Occup=    1.00000
   1    -0.00072812018675982
   2     0.002169208693021
   3    -0.0096708527037457
   4     0.017342538422303
   5     -0.01060178270216
   6    0.00084209870397586
   7    -0.0019296849704724
   8    -0.0016137944122168
   9    -0.0026227228900605
  10    0.0059801653290395
  11    0.0050422792758209
  12    0.0040133007445239
  13    -0.0074275649275185
  14    -0.0075487336152216
  15    0.0023596823111297
  16      0.60927930612642
  17     -0.31486777987883
  18      0.53899340306778
  19     -0.10534112389584
  20    0.0011407998671824
  21      0.16394233342635
  22    -0.086424210111635
  23      0.14549914631173
  24    -0.027580013995682
  25    -2.3661809421074e-05
  26    0.00029939280904417
  27    0.00011624842165772
  28    0.0001700291038979
  29    0.0002947832918916
  30    0.00017770989323351
  31    0.00034782739734216
  32    0.00036113958238866
  33    0.0024892820869501
  34    -0.005168831293744
  35    -0.0053669616990387
  36     0.017495311341674
  37    -0.011641814311564
  38     0.011446034805081
  39     0.029622746728755
  40    -0.019811498403849
  41     0.019192241150786
  42     0.046096142418234
  43    -0.034018815833799
  44     0.037459943340847
  45    -0.0023983713557986
  46    -0.0005281472470197
  47    0.0002919373729207
  48    -0.00014110124929169
  49    -0.002194839785861
  50    0.00030025103408866
  51    0.0021006211929077
  52    -0.0048584660988192
  53    -0.0049953387922099
  54    -0.015775433848063
  55    7.1827470015456e-06
  56    -0.016876154024752
  57    -0.026652918409978
  58    -0.00013851433279854
  59     -0.02856198442271
  60    -0.042355076557645
  61    0.0046037368749776
  62    -0.050261887812192
  63    0.0010399244328016
  64    0.0009296834822156
  65    0.0023993868812333
  66    0.00025318109063982
  67    0.0014900050435269
  68    -0.0014950427882928
  69    0.0042785526207755
  70    -0.020723957257785
  71     0.037732695023113
  72    -0.014726484977816
  73    -0.00058932113146263
  74    0.0024850038856465
  75      0.00174304395659
  76     0.001929007673131
  77    -0.008118480268622
  78    -0.005694940626173
  79    -0.0031063505539237
  80     0.011780885466049
  81    0.0086135552233648
  82    -0.00072391272443023
  83    -0.0031256817833985
  84    0.0037563410023945
  85    -0.0024179052009947
  86    0.00037379908039863
  87    -0.0015330759714272
  88    -0.0048762140486255
  89    0.00052443948414821
  90    3.6167029332739e-05
  91    0.0033778967239332
  92    5.2113646727849e-05
  93    -0.00019855864790069
  94    -0.00017576121592088
  95    0.00034824383259067
  96    2.8824783855666e-05
  97    -0.00034057007063075
  98    9.901536402729e-05
  99    0.00070055422477461
 100    0.0046253923516843
 101    -0.0073847179447957
 102    -0.006176788207794
 103    -0.0044900692077097
 104    0.0079493656687556
 105    -0.0010404387257062
 106    -0.0079360765006423
 107     0.013900155487199
 108    -0.0015096522730751
 109    -0.0079261930483647
 110     0.021452514153847
 111    -0.0051640286847845
 112    -0.0015554790512615
 113    -0.0026374946328651
 114    0.0014100278941304
 115    0.0022254591816962
 116    -0.0014439522752097
 117    0.00093336445391431
 118    0.0061332150313111
 119    -0.0089193072800741
 120    -0.0096558964583699
 121    0.0056128245380331
 122    0.0021092040580261
 123     0.004853496309649
 124    0.0096688429728731
 125    0.0040353967072516
 126    0.0085039224746007
 127     0.014377624381684
 128      0.00178862344368
 129     0.011095855664554
 130    -0.0010904576332906
 131    0.00055536894348944
 132    0.0036460696449368
 133    -0.0025771350163494
 134    0.0026875668112515
 135    0.00019432455403224
 136    0.0013080825873562
 137    -0.0031628899465997
 138     0.002441376204379
 139    -0.00060267881659311
 140    -0.0012016179200046
 141    -0.002540270685764
 142    -0.0014166580737397
 143    -0.0021505801771412
 144    -0.0043650584025224
 145    0.00025465011190551
 146    -0.0035947033772826
 147    -0.0079861792200017
 148    1.2067254876043e-05
 149    0.0002284516721457
 150    0.00026525844126848
 151    -0.00023502954936918
 152    0.00020751415526289
 153    0.00021959645618021
 154    0.0014777098921656
 155    -0.003440765163387
 156    0.0020986424906435
 157    0.0014158173164988
 158    -0.0026246693197158
 159    4.8010255745814e-05
 160     0.002771481011717
 161    -0.0044751603261465
 162    6.1901708333082e-05
 163    0.0026956385711757
 164    -0.0086466677593851
 165    2.9092549070469e-05
 166    -6.3643469706721e-05
 167    -0.00018970488663334
 168    0.00019312573713769
 169    -1.6594755027709e-05
 170    -0.00038629739915617
 171    -0.0034574123802074
 172    0.0080993579110501
 173    0.0045442163941335
 174    -0.007186529528554
 175    -0.012567429465385
 176    -0.010002439984559
 177    -0.0067203406954565
 178    -0.0055348663775423
 179    -0.0086710563564769
 180    0.00038892468737309
 181    0.0006263617368746
 182    0.00071671238373457
 183    -8.746261370814e-05
 184    0.00051499943062725
 185    -0.0034967669224455
 186    -0.0018216929281679
 187    8.8183610141627e-05
 188    -0.00045684883893437
 189    -0.00030198484063207
 190    -0.0044778331447536
 191    -0.0034036889009978
 192    -0.00038498600029328
 193    -9.4088375797387e-05
 194    -6.3716079335327e-05
 195    0.00063563895384805
 196    0.0025509419472889
 197    -8.9286174478111e-05
 198    0.00014216242617939
 199    -6.7850500467208e-05
 200    -0.0031703732782241
 201    0.0067243461242965
 202    0.0075425840187112
 203     0.013954809736143
 204    -0.0032876780811852
 205    -0.0033778231813236
 206     0.010052743045468
 207    -0.00057836498531843
 208    -0.00055801091434953
 209    -0.00082918045030467
 210    0.00039349356848661
 211    -0.00020811904450143
 212    0.00083053202337878
 213    8.9316837900944e-05
 214    0.00034519777844926
 215    0.0022205681631152
 216    0.00027582153078743
 217    -3.6893467875524e-05
 218    -0.00012052879440262
 219    -0.0058090149465958
 220    -0.0044156042608094
 221    0.00026844512269884
 222    -1.7974675775952e-05
 223    0.00014821851201671
 224    -0.00069310011736907
 225    -0.0038018853847181
 226    2.1592747658226e-05
 227    2.3720912069276e-05
 228    9.5079150269508e-05
 229    0.00063255716273587
 230    -0.00074393952290888
 231    -0.0098723144939272
 232    0.00039454551361898
 233    -0.0014178206049427
 234    -0.0011645452532392
 235    0.0022468577218502
 236    -0.00076765122507672
 237    -0.0014822645277572
 238    2.819501747992e-05
 239    2.0572731545314e-05
 240    -6.6197061595663e-05
 241    3.285967822888e-06
 242    -0.00013357037856925
 243    0.00027503816818875
 244    0.0033160917337869
 245    -4.3683767551052e-05
 246    -9.2857761839503e-05
 247    3.2594995364054e-05
 248    0.00051768327777608
 249    0.0020238952844613
 250    3.2480404864011e-05
 251    5.6324520099376e-05
 252    -3.2230267533833e-05
 253    -0.00066375514208035
 254    0.0081750477198585
 255    0.00011460805149558
 256    0.00023471845118153
 257    -2.2640104654528e-05
 258    0.00055061858939188
 259    -0.0006228940783382
 260    -0.0091573538250055
 261    0.00041314930406322
 262    -0.0013697544933067
 263    -0.00071655115814168
 264    -0.0011205113223479
 265    -0.0017366333020609
 266    -0.00021519302922328
 267    5.2189645698962e-05
 268    0.00013508657135658
 269    -2.6431914260677e-05
 270    -4.6734693715033e-05
 271    4.4006956514874e-05
 272    0.00038534628900542
 273    0.0019047075146744
 274    -4.402857261281e-05
 275    -1.1760909863122e-05
 276    6.4241526320482e-05
 277    -0.00050312099441931
 278    0.0071690032755453
 279    -0.00015245999941878
 280    2.0471486641597e-06
 281    0.00014706287188034
 282    0.00025537227929009
 283    0.0033419832145975
 284    5.4569387887876e-05
 285    1.0083360525084e-05
 286    -9.6004403450024e-05
 Sym= A
 Ene=               1
 Spin= Alpha
 Occup=    1.00000
   1    -0.00057392803780437
   2    0.0017210975216338
   3    -0.0075770212321985
   4     0.014244562085023
   5    -0.018263620977178
   6    -0.0007877121743114
   7    -3.9424028552444e-05
   8    -0.00018475911468122
   9    0.0025032913617766
  10    4.3319751582673e-05
  11    0.00049541086933607
  12    -0.0052826003353591
  13    0.0046172495557326
  14    0.0025184862662195
  15    -0.012722789455953
  16     -0.38403126875391
  17     -0.64963681168649
  18      0.13712082254714
  19       0.4276617191693
  20    -0.0030119551815404
  21     -0.10094362954972
  22     -0.17356830306294
  23     0.037860492544723
  24      0.11341118150556
  25    0.00022036017869541
  26    -0.00023152452547637
  27    -0.00011420732317688
  28    0.00027963400322763
  29    -0.00015639040533031
  30    -0.0002417896264846
  31    7.7865980390964e-05
  32    0.00052639690726234
  33    0.0035792138245269
  34    -0.0069425652488615
  35    -0.0054291000946303
  36     0.011147730606898
  37    0.0059522728472188
  38    -0.021829289130742
  39     0.018929425269132
  40    0.0097504187833612
  41    -0.036848514088266
  42     0.027069812802633
  43      0.02042346101184
  44    -0.063825884778211
  45    0.0011992596452552
  46    -0.0022828243955541
  47    0.0019878413685136
  48    0.0010722440815001
  49    -0.00066268393654269
  50    0.00068864443832104
  51    0.0046075988347627
  52    -0.0079051538895954
  53    -0.0064102914640165
  54    -0.0058879754282754
  55    -0.020405255359722
  56    0.0079242504085995
  57    -0.0099961376529561
  58    -0.034617758966325
  59     0.013146070441648
  60    -0.013091058778311
  61    -0.056273207032717
  62     0.027176305131135
  63    -0.0021244416184244
  64    0.00028866148222305
  65    0.00072508630963722
  66    -0.0023939534128302
  67    0.0011711030659934
  68    -0.0016269165728878
  69    0.0046429315765843
  70    -0.022609510652694
  71     0.038360458079155
  72    -0.0036940012723481
  73    -0.00065203774801216
  74    0.0028708110499815
  75    0.0016819255084977
  76     0.002132970162029
  77    -0.0093939031120626
  78    -0.0055183975120198
  79    -0.0031105367927866
  80     0.015787259378141
  81    0.0089802066522004
  82    -0.0023570577544559
  83    -1.413997485246e-06
  84    0.0047624753916002
  85    -0.00063571135287581
  86    -0.0014630564275662
  87    -0.0037152250447811
  88    0.0017550443207807
  89     0.003106425126037
  90    0.0038220128593469
  91    -1.481443668928e-05
  92    1.2226055637437e-07
  93    0.00020370607696599
  94    -0.00010929196152248
  95    0.00026822420689236
  96    0.00022632819467357
  97    -0.00017821505251579
  98    0.00044423562287394
  99    -0.00042016500630878
 100    -0.0026879857512078
 101    0.0022894035993522
 102    0.0081964339217383
 103    0.0069111727122862
 104      0.01984330601968
 105    -0.0032117393376716
 106     0.011735419338573
 107     0.034222561142042
 108    -0.0055163365346986
 109     0.019628274412818
 110     0.058652461648088
 111    -0.0094362471119009
 112    0.00060491363690865
 113      0.00129403228956
 114     0.001819166641971
 115     -0.00133103741889
 116    0.00028545437056233
 117    -5.5312978223204e-05
 118    -0.00029578301825432
 119    -0.0011961361959456
 120    0.0034551841993794
 121    -0.012924897734042
 122    -0.0033543829006781
 123     0.014033693000296
 124    -0.022214505177983
 125    -0.0055496836262367
 126     0.024294818567659
 127    -0.038701218160546
 128    -0.011227395390021
 129     0.040628940145483
 130    -0.00043877602545507
 131    -0.00049029277791446
 132    0.0014549026253543
 133    0.00015530328340339
 134    -0.001075705257898
 135    0.00047223666758929
 136    0.0031184815324849
 137    -0.0049208817151788
 138    -0.0048380540954396
 139    0.00031848299979274
 140    -0.00078772065676056
 141    -0.0034894046041683
 142    0.00098708122543806
 143    -0.0014159532813954
 144    -0.0062224932183659
 145    -0.0023052676489089
 146    -0.0024742574520454
 147    -0.010078948861765
 148    -0.0001456087072758
 149    -0.0007544234034569
 150    0.00035904844915798
 151    0.00036540673714441
 152    -0.00031996765166149
 153    0.00039882545712051
 154    0.0026290965807765
 155    -0.004175942538556
 156    -0.0037806050345004
 157    0.00048469132412573
 158    -0.0031933887884363
 159    0.00070614862818317
 160    0.00052087354008308
 161    -0.0057751838982584
 162    0.0012047376510603
 163    0.0039989336746047
 164    -0.0083293850401645
 165     0.002158662096213
 166    -0.00036845384861148
 167    7.9481198884659e-05
 168    0.00027700909933695
 169    -0.00021871896717462
 170    0.00062960671725983
 171    0.00014304192707461
 172    0.00062298569299158
 173    -0.010053777717602
 174    0.00064824974031221
 175    -0.00027529962772362
 176    -0.0052522638036759
 177    -0.001627857172983
 178    0.0018442365452482
 179    -0.0065883128487247
 180    -0.00094943866066352
 181    8.5319470793014e-05
 182    -0.00025139134793925
 183    0.0005116974355807
 184    0.00099029944027593
 185    0.0061001502926275
 186    0.0069483078032643
 187    -4.9533808574756e-05
 188    7.4376526466265e-05
 189    0.00021533131490915
 190     -0.00344577642257
 191    -0.0013838139145224
 192    -0.0001086124860695
 193    2.0055538655316e-05
 194    -0.00020579759715051
 195    -0.0030964433761588
 196    0.0087328346671871
 197    8.9496300314999e-05
 198    -0.00020402806506057
 199    0.00028555620747003
 200    0.0015425954590124
 201    -0.003296149218748
 202     -0.00536253812222
 203    -0.005554030250407
 204    -0.0036081849848938
 205    0.0031267799598563
 206    -0.0041005629406441
 207    -0.0050424258747629
 208    0.0020309982739527
 209    0.00013239305698738
 210    -0.00030386000602818
 211    0.00047745367202898
 212    0.00030403744329128
 213    0.0014817308469724
 214    0.0059596459910559
 215    0.0025021543439422
 216    -0.00030903021485181
 217    0.00032991875794577
 218    0.00035921076758143
 219    0.0015301608826652
 220    0.0021830845039856
 221    -6.6158692584014e-05
 222    -0.0001881603012445
 223    -1.1768560924087e-06
 224    -0.0059093677785854
 225    0.0034207510483761
 226    -2.0106651968766e-05
 227    0.00033063299844939
 228    -0.00040933130406897
 229    -0.00060863737882189
 230    0.00058792613463193
 231    0.0083544095112017
 232    0.0012434152730249
 233    0.0015430265413405