[Molden Format]
made by pyscf v[2.2.1]
[Atoms] (AU)
Fe   1   26    10.35569916261654     2.17318504324982   -15.17450078025744
S   2   16     7.65339080448850    -1.15273293598469   -16.53510358994429
S   3   16    14.15404867299231     0.79368497231733   -17.08312416606816
Fe   4   26    11.41394579237297    -2.30546587196938   -18.19806257956155
S   5   16    10.33680190137089     2.36215765570633   -10.54467177507304
S   6   16     8.74943195673624     6.19830168857340   -16.57289811243559
S   7   16    10.86592521624911    -2.83458918684759   -22.77119980100900
S   8   16    12.96352121451632    -6.44396608476686   -16.74297346364645
C   9   6    10.41239094635349     8.40928125431453   -14.19184319548361
H   10   1    12.26432254842725     9.12737718164925   -14.96663090655529
H   11   1     9.20296622663185    10.07224024393178   -13.70051440309670
H   12   1    10.80923343251215     7.25654831832984   -12.45329516088376
C   13   6     6.80301404843422     3.21253441176060   -10.46908273009044
H   14   1     5.68807563494084     1.51178089965205   -10.99820604496866
H   15   1     6.19830168857340     3.89283581660403    -8.54156208303408
H   16   1     6.46286334601251     4.68652078892135   -11.92417184600554
C   17   6     9.84547310898397    -7.97464424566456   -17.87680913838549
H   18   1     9.63760323528181    -7.57780175950590   -19.93661061416140
H   19   1     9.84547310898397   -10.05334298268613   -17.49886391347247
H   20   1     8.25810316434932    -7.02978118338203   -16.87525429236600
C   21   6    14.41861033043142    -3.49599333044536   -23.13024776467636
H   22   1    14.92883638406399    -3.89283581660403   -25.15225471796098
H   23   1    15.49575422143351    -1.81413707958246   -22.41215183734163
H   24   1    14.90993912281834    -5.14005505881697   -21.90192578370907
[GTO]
1 0
 s    6 1.00
          60923.640643  0.0017552243692958
          9147.8893982   0.013449023284001
          2081.3505927   0.066678874640978
          587.55977067    0.23176348548844
           191.0904399    0.46945550248188
          65.732730112     0.3596824938678
 s    3 1.00
          127.25891928   -0.10723431835929
           14.83091301    0.62971616328466
          6.0653307408    0.44472317896179
 s    3 1.00
           10.44994371   -0.21694289195548
          1.7245228003    0.69457867408393
         0.71772177325    0.43298308896347
 s    1 1.00
        0.091449828308                   1
 s    1 1.00
        0.033706691021                   1
 p    5 1.00
          773.43750995  0.0091440529992506
          182.15149714   0.067887577136571
          57.547272758    0.26167978878504
          20.614988935    0.51088040113251
           7.634855789    0.33235475570224
 p    3 1.00
           3.871932799    0.33193859098144
          1.4924724132     0.5553666555499
         0.56061284958    0.23106034201617
 p    1 1.00
              0.134915                   1
 d    4 1.00
          38.968133419   0.033335938558743
          10.800067078    0.17766212505983
          3.6136457999      0.441281781625
          1.2129967888    0.57089200490673
 d    1 1.00
          0.3652439317                   1
 f    1 1.00
                 1.598                   1

2 0
 s    5 1.00
           9184.930301  -0.0054729466134731
          1381.5105503  -0.040954402155135
           313.8714758   -0.18475828956188
          88.053870623   -0.47567280643953
          27.039914905   -0.43495153584169
 s    3 1.00
          45.648731303  -0.091904045808942
          4.9664522326    0.55698777214497
          2.0116242047     0.5111546829846
 s    1 1.00
         0.35661077013                   1
 s    1 1.00
         0.13507221477                   1
 p    5 1.00
          261.98233439  -0.009183054659266
          61.306894736   -0.06590222652599
          19.103729887   -0.24587784518735
          6.6567720378    -0.4823147107602
          2.3959635161   -0.38956314351423
 p    1 1.00
         0.61776161679                   1
 p    1 1.00
         0.16993376871                   1
 d    1 1.00
                  0.55                   1

3 0
 s    5 1.00
           9184.930301  -0.0054729466134731
          1381.5105503  -0.040954402155135
           313.8714758   -0.18475828956188
          88.053870623   -0.47567280643953
          27.039914905   -0.43495153584169
 s    3 1.00
          45.648731303  -0.091904045808942
          4.9664522326    0.55698777214497
          2.0116242047     0.5111546829846
 s    1 1.00
         0.35661077013                   1
 s    1 1.00
         0.13507221477                   1
 p    5 1.00
          261.98233439  -0.009183054659266
          61.306894736   -0.06590222652599
          19.103729887   -0.24587784518735
          6.6567720378    -0.4823147107602
          2.3959635161   -0.38956314351423
 p    1 1.00
         0.61776161679                   1
 p    1 1.00
         0.16993376871                   1
 d    1 1.00
                  0.55                   1

4 0
 s    6 1.00
          60923.640643  0.0017552243692958
          9147.8893982   0.013449023284001
          2081.3505927   0.066678874640978
          587.55977067    0.23176348548844
           191.0904399    0.46945550248188
          65.732730112     0.3596824938678
 s    3 1.00
          127.25891928   -0.10723431835929
           14.83091301    0.62971616328466
          6.0653307408    0.44472317896179
 s    3 1.00
           10.44994371   -0.21694289195548
          1.7245228003    0.69457867408393
         0.71772177325    0.43298308896347
 s    1 1.00
        0.091449828308                   1
 s    1 1.00
        0.033706691021                   1
 p    5 1.00
          773.43750995  0.0091440529992506
          182.15149714   0.067887577136571
          57.547272758    0.26167978878504
          20.614988935    0.51088040113251
           7.634855789    0.33235475570224
 p    3 1.00
           3.871932799    0.33193859098144
          1.4924724132     0.5553666555499
         0.56061284958    0.23106034201617
 p    1 1.00
              0.134915                   1
 d    4 1.00
          38.968133419   0.033335938558743
          10.800067078    0.17766212505983
          3.6136457999      0.441281781625
          1.2129967888    0.57089200490673
 d    1 1.00
          0.3652439317                   1
 f    1 1.00
                 1.598                   1

5 0
 s    5 1.00
           9184.930301  -0.0054729466134731
          1381.5105503  -0.040954402155135
           313.8714758   -0.18475828956188
          88.053870623   -0.47567280643953
          27.039914905   -0.43495153584169
 s    3 1.00
          45.648731303  -0.091904045808942
          4.9664522326    0.55698777214497
          2.0116242047     0.5111546829846
 s    1 1.00
         0.35661077013                   1
 s    1 1.00
         0.13507221477                   1
 p    5 1.00
          261.98233439  -0.009183054659266
          61.306894736   -0.06590222652599
          19.103729887   -0.24587784518735
          6.6567720378    -0.4823147107602
          2.3959635161   -0.38956314351423
 p    1 1.00
         0.61776161679                   1
 p    1 1.00
         0.16993376871                   1
 d    1 1.00
                  0.55                   1

6 0
 s    5 1.00
           9184.930301  -0.0054729466134731
          1381.5105503  -0.040954402155135
           313.8714758   -0.18475828956188
          88.053870623   -0.47567280643953
          27.039914905   -0.43495153584169
 s    3 1.00
          45.648731303  -0.091904045808942
          4.9664522326    0.55698777214497
          2.0116242047     0.5111546829846
 s    1 1.00
         0.35661077013                   1
 s    1 1.00
         0.13507221477                   1
 p    5 1.00
          261.98233439  -0.009183054659266
          61.306894736   -0.06590222652599
          19.103729887   -0.24587784518735
          6.6567720378    -0.4823147107602
          2.3959635161   -0.38956314351423
 p    1 1.00
         0.61776161679                   1
 p    1 1.00
         0.16993376871                   1
 d    1 1.00
                  0.55                   1

7 0
 s    5 1.00
           9184.930301  -0.0054729466134731
          1381.5105503  -0.040954402155135
           313.8714758   -0.18475828956188
          88.053870623   -0.47567280643953
          27.039914905   -0.43495153584169
 s    3 1.00
          45.648731303  -0.091904045808942
          4.9664522326    0.55698777214497
          2.0116242047     0.5111546829846
 s    1 1.00
         0.35661077013                   1
 s    1 1.00
         0.13507221477                   1
 p    5 1.00
          261.98233439  -0.009183054659266
          61.306894736   -0.06590222652599
          19.103729887   -0.24587784518735
          6.6567720378    -0.4823147107602
          2.3959635161   -0.38956314351423
 p    1 1.00
         0.61776161679                   1
 p    1 1.00
         0.16993376871                   1
 d    1 1.00
                  0.55                   1

8 0
 s    5 1.00
           9184.930301  -0.0054729466134731
          1381.5105503  -0.040954402155135
           313.8714758   -0.18475828956188
          88.053870623   -0.47567280643953
          27.039914905   -0.43495153584169
 s    3 1.00
          45.648731303  -0.091904045808942
          4.9664522326    0.55698777214497
          2.0116242047     0.5111546829846
 s    1 1.00
         0.35661077013                   1
 s    1 1.00
         0.13507221477                   1
 p    5 1.00
          261.98233439  -0.009183054659266
          61.306894736   -0.06590222652599
          19.103729887   -0.24587784518735
          6.6567720378    -0.4823147107602
          2.3959635161   -0.38956314351423
 p    1 1.00
         0.61776161679                   1
 p    1 1.00
         0.16993376871                   1
 d    1 1.00
                  0.55                   1

9 0
 s    5 1.00
          1238.4016938  0.0055173650481097
          186.29004992   0.041088828555946
          42.251176346     0.1822538212649
          11.676557932    0.46828459437429
          3.5930506482    0.44575817336002
 s    1 1.00
         0.40245147363                   1
 s    1 1.00
         0.13090182668                   1
 p    3 1.00
          9.4680970621   0.056888332011037
          2.0103545142    0.31294059336471
         0.54771004707    0.76065016509135
 p    1 1.00
         0.15268613795                   1
 d    1 1.00
                   0.8                   1

10 0
 s    3 1.00
             13.010701   0.033485484812989
             1.9622572    0.23472187088125
            0.44453796    0.81377028525955
 s    1 1.00
            0.12194962                   1
 p    1 1.00
                   0.8                   1

11 0
 s    3 1.00
             13.010701   0.033485484812989
             1.9622572    0.23472187088125
            0.44453796    0.81377028525955
 s    1 1.00
            0.12194962                   1
 p    1 1.00
                   0.8                   1

12 0
 s    3 1.00
             13.010701   0.033485484812989
             1.9622572    0.23472187088125
            0.44453796    0.81377028525955
 s    1 1.00
            0.12194962                   1
 p    1 1.00
                   0.8                   1

13 0
 s    5 1.00
          1238.4016938  0.0055173650481097
          186.29004992   0.041088828555946
          42.251176346     0.1822538212649
          11.676557932    0.46828459437429
          3.5930506482    0.44575817336002
 s    1 1.00
         0.40245147363                   1
 s    1 1.00
         0.13090182668                   1
 p    3 1.00
          9.4680970621   0.056888332011037
          2.0103545142    0.31294059336471
         0.54771004707    0.76065016509135
 p    1 1.00
         0.15268613795                   1
 d    1 1.00
                   0.8                   1

14 0
 s    3 1.00
             13.010701   0.033485484812989
             1.9622572    0.23472187088125
            0.44453796    0.81377028525955
 s    1 1.00
            0.12194962                   1
 p    1 1.00
                   0.8                   1

15 0
 s    3 1.00
             13.010701   0.033485484812989
             1.9622572    0.23472187088125
            0.44453796    0.81377028525955
 s    1 1.00
            0.12194962                   1
 p    1 1.00
                   0.8                   1

16 0
 s    3 1.00
             13.010701   0.033485484812989
             1.9622572    0.23472187088125
            0.44453796    0.81377028525955
 s    1 1.00
            0.12194962                   1
 p    1 1.00
                   0.8                   1

17 0
 s    5 1.00
          1238.4016938  0.0055173650481097
          186.29004992   0.041088828555946
          42.251176346     0.1822538212649
          11.676557932    0.46828459437429
          3.5930506482    0.44575817336002
 s    1 1.00
         0.40245147363                   1
 s    1 1.00
         0.13090182668                   1
 p    3 1.00
          9.4680970621   0.056888332011037
          2.0103545142    0.31294059336471
         0.54771004707    0.76065016509135
 p    1 1.00
         0.15268613795                   1
 d    1 1.00
                   0.8                   1

18 0
 s    3 1.00
             13.010701   0.033485484812989
             1.9622572    0.23472187088125
            0.44453796    0.81377028525955
 s    1 1.00
            0.12194962                   1
 p    1 1.00
                   0.8                   1

19 0
 s    3 1.00
             13.010701   0.033485484812989
             1.9622572    0.23472187088125
            0.44453796    0.81377028525955
 s    1 1.00
            0.12194962                   1
 p    1 1.00
                   0.8                   1

20 0
 s    3 1.00
             13.010701   0.033485484812989
             1.9622572    0.23472187088125
            0.44453796    0.81377028525955
 s    1 1.00
            0.12194962                   1
 p    1 1.00
                   0.8                   1

21 0
 s    5 1.00
          1238.4016938  0.0055173650481097
          186.29004992   0.041088828555946
          42.251176346     0.1822538212649
          11.676557932    0.46828459437429
          3.5930506482    0.44575817336002
 s    1 1.00
         0.40245147363                   1
 s    1 1.00
         0.13090182668                   1
 p    3 1.00
          9.4680970621   0.056888332011037
          2.0103545142    0.31294059336471
         0.54771004707    0.76065016509135
 p    1 1.00
         0.15268613795                   1
 d    1 1.00
                   0.8                   1

22 0
 s    3 1.00
             13.010701   0.033485484812989
             1.9622572    0.23472187088125
            0.44453796    0.81377028525955
 s    1 1.00
            0.12194962                   1
 p    1 1.00
                   0.8                   1

23 0
 s    3 1.00
             13.010701   0.033485484812989
             1.9622572    0.23472187088125
            0.44453796    0.81377028525955
 s    1 1.00
            0.12194962                   1
 p    1 1.00
                   0.8                   1

24 0
 s    3 1.00
             13.010701   0.033485484812989
             1.9622572    0.23472187088125
            0.44453796    0.81377028525955
 s    1 1.00
            0.12194962                   1
 p    1 1.00
                   0.8                   1

[5d]
[7f]
[9g]

[MO]
 Sym= A
 Ene=               0
 Spin= Alpha
 Occup=    1.00000
   1    -0.00072702379762799
   2    0.0021676903063235
   3    -0.0096449016489703
   4     0.017054079518382
   5    -0.010261688698164
   6    0.00083839255197011
   7    -0.0019126402549679
   8    -0.0016040828615962
   9    -0.0026104320288733
  10    0.0059244614804254
  11    0.0050099163660496
  12    0.0039483670595461
  13    -0.0071991753853159
  14    -0.0074004000815002
  15    0.0023164187967625
  16      0.60943588982518
  17     -0.31488238084875
  18      0.53917139792824
  19     -0.10534825709712
  20     0.001122589846323
  21      0.16410175791798
  22    -0.086466274352392
  23       0.1456509524158
  24    -0.027602189590302
  25    -2.5246692057292e-05
  26    0.00029165281787424
  27    0.00011515396798692
  28    0.0001693677515789
  29    0.00028961949930973
  30    0.00017421507679688
  31    0.0003433354112921
  32    0.00034976177943126
  33    0.0024185784055435
  34    -0.0051556973248874
  35    -0.0049045386309593
  36     0.017217130594781
  37    -0.011399932395512
  38     0.011216382480143
  39     0.028403853627872
  40    -0.018897349722028
  41     0.018351151617923
  42      0.04592103872253
  43    -0.033499492439121
  44     0.037031457214803
  45    -0.0023700186368988
  46    -0.00056043256401106
  47    0.00029059078031282
  48    -0.00019480370800926
  49    -0.0021470917934647
  50    0.00028901399898951
  51    0.0020308817205992
  52    -0.0048481781418194
  53    -0.0045339458703149
  54    -0.015539828341309
  55    -1.158690950493e-05
  56    -0.016544186581224
  57     -0.02560956099418
  58    -0.00011648854316469
  59    -0.027294466729482
  60    -0.042297081190602
  61    0.0044884565529602
  62    -0.049676801970673
  63    0.0010503604771547
  64    0.00086729292834918
  65     0.002382462442547
  66    0.00022208026210251
  67    0.0014703642927494
  68    -0.0014744599839701
  69    0.0042264572792824
  70    -0.020410689010443
  71      0.03656744347064
  72    -0.014516238558674
  73    -0.00057909899233473
  74    0.0024487793720299
  75    0.0017148663147277
  76    0.0018947863544054
  77    -0.0079965023401316
  78    -0.0056009344345035
  79    -0.0029881226865159
  80     0.011323896773163
  81     0.008271633494632
  82    -0.00090685703112558
  83    -0.002880979434194
  84    0.0037698489956115
  85    -0.002025564083137
  86    0.00035554988719324
  87    -0.0015834681391194
  88    -0.0051167780140595
  89    0.00070946008140242
  90    -7.5248453410867e-05
  91    0.0034478032398074
  92    5.7246085667567e-05
  93    -0.0001889789792143
  94    -0.00017145668915781
  95    0.00034156388409913
  96    3.1853827207106e-05
  97    -0.0003280190732719
  98    9.7309549891275e-05
  99    0.00070222290529848
 100    0.0046340913602498
 101    -0.0073493691919296
 102    -0.0063467533884611
 103    -0.0044935311220135
 104    0.0079406360145931
 105    -0.0010327251805897
 106    -0.0079522258755102
 107     0.013881941989165
 108    -0.0015007853552752
 109    -0.0078878852301617
 110     0.021430633449278
 111    -0.0051043037470564
 112    -0.0015639673431658
 113    -0.0026456491990526
 114    0.0014122710827792
 115    0.0022289432369256
 116    -0.0014467173165764
 117    0.00093669570724008
 118    0.0061533451290829
 119    -0.0089094294856864
 120    -0.009832400830417
 121    0.0056136153095707
 122    0.0021213184828144
 123    0.0048443501234337
 124    0.0096812461385451
 125    0.0040618136942839
 126    0.0084919009514367
 127     0.014325883699433
 128     0.001817693083417
 129     0.011030632330577
 130    -0.0010928779075885
 131    0.0005529637079171
 132    0.0036559366165123
 133    -0.0025789103923686
 134    0.0026998974427857
 135    0.00018818805264933
 136    0.0012666676225417
 137    -0.0030931213638511
 138    0.0024813916810508
 139    -0.00060049555331309
 140    -0.0011738330962099
 141    -0.0024992919539184
 142    -0.001391791488089
 143    -0.0021094307767715
 144    -0.0043000060069957
 145    0.00019251413692963
 146    -0.0034708384836361
 147    -0.007815309899063
 148    1.7989395351306e-05
 149    0.0002129391289329
 150    0.00027633927509437
 151    -0.00023652464247763
 152    0.00020450965665693
 153    0.00021228899091441
 154    0.0014288093505533
 155    -0.0033644877480316
 156    0.0021638165957495
 157    0.0013949648278361
 158    -0.0025724130858889
 159    5.6294420404545e-05
 160    0.0027212143885512
 161    -0.0043980722154456
 162    6.942353771779e-05
 163    0.0026609005130206
 164    -0.0084092375605283
 165    7.7400051273682e-05
 166    -7.3586895576017e-05
 167    -0.00019241617800522
 168    0.00019624861666661
 169    -3.2647349437074e-05
 170    -0.00038174700751781
 171    -0.0034627089729421
 172    0.0081091703316596
 173    0.0046600466271179
 174    -0.0071944961003469
 175     -0.01258268074992
 176    -0.010011527842861
 177    -0.0067313994156078
 178    -0.0055283066137451
 179    -0.0086938809709673
 180    0.00038949190744247
 181    0.00062669163364956
 182    0.00071875050283384
 183    -8.7550989047225e-05
 184    0.0005145917665124
 185    -0.0035021157670965
 186    -0.0018752602058334
 187    9.0433788962474e-05
 188    -0.00045840223649922
 189    -0.00030240578090062
 190    -0.0044856274903502
 191    -0.0034378196583286
 192    -0.00038659014600508
 193    -9.3743757037132e-05
 194    -6.2274078958781e-05
 195    0.00064505311128092
 196    0.0024893098002918
 197    -8.8892126556668e-05
 198    0.00014412784998684
 199    -6.5818192815507e-05
 200    -0.0031738172388281
 201    0.0067287436211203
 202    0.0076581681131701
 203     0.013972879167291
 204    -0.0032926058235568
 205    -0.0033783222699342
 206     0.010055730526282
 207    -0.00059521781295334
 208    -0.00054112679020808
 209    -0.00082991866207931
 210    0.00039370061874855
 211    -0.00020741103897961
 212    0.00083143427219988
 213    8.7928234684972e-05
 214    0.00034477794925679
 215     0.002131457580345
 216    0.00027432305268363
 217    -3.8172486131994e-05
 218    -0.00012254596206889
 219    -0.0058164708828895
 220    -0.0044492238832313
 221    0.0002686981816289
 222    -1.7234580882123e-05
 223    0.00014962064834984
 224    -0.00069516623919655
 225    -0.0038400983758691
 226    2.0557861003861e-05
 227    2.3820747812211e-05
 228    9.6196235336969e-05
 229    0.00062190428958409
 230    -0.00071248008440018
 231    -0.0096943683217878
 232    0.00038407548953788
 233    -0.0013952411877946
 234    -0.0011522160277111
 235    0.0021847569359516
 236    -0.00082720096499772
 237    -0.0014448509109923
 238    2.4539659989071e-05
 239    2.0874032825394e-05
 240    -6.5120321323592e-05
 241    4.4228556509084e-07
 242    -0.00013056529341834
 243    0.00028927060769983
 244    0.0032794008572868
 245    -4.2469894616193e-05
 246    -8.3599917201267e-05
 247    3.592872648394e-05
 248    0.00050178556035761
 249    0.0019746872918671
 250    3.3443133377362e-05
 251    5.4638903351881e-05
 252    -3.0080394791221e-05
 253    -0.0006399429915184
 254     0.007968707349203
 255    0.00010978380371006
 256    0.00023331587965927
 257    -2.2714234597845e-05
 258    0.00054181596384573
 259    -0.00059405427747795
 260    -0.0089936067850628
 261    0.00041219736064007
 262    -0.0013518937972484
 263    -0.00070154249461791
 264    -0.0010652854907954
 265    -0.0017193205509226
 266    -0.00027972550081205
 267    5.3792871499175e-05
 268    0.00013053586903964
 269    -2.3698738779731e-05
 270    -4.4219588892547e-05
 271    4.2499031984655e-05
 272    0.00037077089587193
 273    0.0018544499469554
 274    -4.4628030546027e-05
 275    -1.0961068476473e-05
 276    6.121317087407e-05
 277    -0.0004800105728514
 278    0.0069971908211008
 279    -0.00014933390986366
 280    2.9356705642436e-06
 281    0.00014914141164971
 282    0.0002698148710255
 283     0.003300144069043
 284    5.0530128526421e-05
 285    1.5771667408279e-05
 286    -8.9030183417928e-05
 Sym= A
 Ene=               1
 Spin= Alpha
 Occup=    1.00000
   1    -0.00057651962667745
   2     0.001729159153409
   3    -0.0076045839742827
   4     0.014120314733103
   5    -0.017812231411826
   6    -0.00078781211534399
   7    -2.7456793703792e-05
   8    -0.00017325674302873
   9    0.0025034340512679
  10    4.2677277369977e-06
  11    0.00045839663882344
  12    -0.0052878076357285
  13     0.004763350152028
  14    0.0026553165003102
  15    -0.012788591107315
  16     -0.38418083165526
  17     -0.64975398211961
  18      0.13720068657295
  19      0.42780476466703
  20    -0.0030428136732012
  21     -0.10106931841815
  22     -0.17370822230502
  23     0.037918504432602
  24      0.11353171845611
  25    0.00021655501459324
  26    -0.00022564341363412
  27    -0.00011094355959024
  28    0.00027435008062502
  29    -0.00015447343790421
  30    -0.00023728391649619
  31    8.0138702675257e-05
  32    0.0005155692253428
  33    0.0035123026394235
  34    -0.0069300617757209
  35    -0.0049574793718686
  36     0.010990494831763
  37    0.0058599425873156
  38    -0.021411865891589
  39     0.018152724256292
  40    0.0094044889579026
  41    -0.035209117175703
  42     0.027098337680204
  43     0.020343584318221
  44    -0.063162193467539
  45    0.0011948263902397
  46    -0.002200230874949
  47    0.0020068476820117
  48    0.0010416515356456
  49    -0.00066734180353496
  50    0.00067801435453489
  51    0.0045418501106224
  52    -0.0078948493411117
  53    -0.0059485566804499
  54    -0.0058251949118109
  55    -0.020044390561495
  56    0.0077677193708566
  57    -0.0096165938000131
  58    -0.033151220534878
  59     0.012590152115954
  60    -0.013267807174342
  61    -0.055845866346678
  62     0.026916264327307
  63    -0.0021051344132585
  64    0.00030274947643422
  65    0.00074443901121042
  66    -0.0023710625842475
  67    0.0011060701861353
  68    -0.0016025377281178
  69    0.0045807775127586
  70    -0.022242790293577
  71     0.037160966343608
  72    -0.0038289310409441
  73    -0.00063989270386838
  74    0.0028270072753685
  75    0.0016572911370443
  76    0.0020919401203178
  77    -0.0092469089988728
  78    -0.005434874426288
  79    -0.0029721457841606
  80     0.015247041752736
  81    0.0086930483041996
  82    -0.0024127807239715
  83    -0.00025848518793293
  84    0.0046882288712191
  85    -0.00057198814531446
  86    -0.001173132363977
  87    -0.0039130878192692
  88    0.0018048968757397
  89    0.0034129711553098
  90    0.0038505698363224
  91    -9.1851170433873e-05
  92    8.5631783140041e-06
  93    0.00019720653842098
  94    -0.00010676011623503
  95    0.00026534474039327
  96    0.00022188898452239
  97    -0.00017243142072577
  98    0.00042977144533545
  99    -0.00041636744114172
 100    -0.0026647067592601
 101    0.0022884288997711
 102    0.0080352607846802
 103    0.0069109975408338
 104     0.019842831787225
 105    -0.0031901845639295
 106     0.011746105905394
 107     0.034224518497256
 108    -0.0054832449436695
 109     0.019584714901222
 110     0.058640333668221
 111    -0.0093161981716584
 112    0.00059663690200207
 113    0.0012979386871125
 114    0.0018293886181706
 115    -0.0013344259485103
 116    0.00029030457085034
 117    -5.3018353589418e-05
 118    -0.00028231527496184
 119    -0.0011885150292799
 120    0.0033477199908393
 121    -0.012932167390885
 122    -0.0033403255417938
 123     0.014027142918406
 124    -0.022235327482422
 125    -0.0055332774564151
 126     0.024280813099954
 127     -0.03869227335374
 128    -0.011122892778881
 129     0.040624872644075
 130    -0.0004396223190065
 131    -0.00049358583276682
 132    0.0014622468489171
 133    0.00016307456313378
 134    -0.0010754371147914
 135    0.00046165480647492
 136    0.0030487707873019
 137    -0.0048494715918064
 138    -0.0046007692916483
 139    0.00032093849901053
 140    -0.00074843227276473
 141    -0.0034287348986586
 142    0.00097260224144291
 143    -0.0013587343536513
 144    -0.0061158659245091
 145    -0.0021987754528318
 146    -0.0022976578583141
 147    -0.0098525048018344
 148    -0.00013571039350463
 149    -0.00073089934547254
 150    0.0003767587248911
 151    0.00036016947610862
 152    -0.00030838539805452
 153    0.00039126385217965
 154      0.00257874077526
 155    -0.0041185849250637
 156    -0.0036221170763536
 157    0.00046344206928487
 158    -0.0031405900044787
 159    0.00071969756435347
 160    0.00050013638716429
 161    -0.0056801957704389
 162    0.0012185311567818
 163    0.0038501709575065
 164    -0.008162852430212
 165    0.0022354527866678
 166    -0.00037418970314005
 167    7.459376208234e-05
 168    0.00028723374864826
 169    -0.00021102721391674
 170    0.00060803498907584
 171    0.00014576277751179
 172    0.00063077086634115
 173    -0.010097937592282
 174    0.00064756655869623
 175    -0.00027516120508594
 176    -0.0052476427245571
 177    -0.0016293084883529
 178    0.0018784019695478
 179    -0.0065474186200946
 180    -0.00095007365407395
 181    8.4525827772571e-05
 182    -0.00025274736677811
 183    0.00051203462924902
 184    0.00098815427744425
 185    0.0061023570796615
 186    0.0069481395940721
 187    -4.9172259044527e-05
 188    7.2198196153302e-05
 189    0.00021414643473897
 190    -0.0034490689116284
 191    -0.0013959243581905
 192    -0.00011042868015125
 193    2.0484626489084e-05
 194    -0.00020666372405486
 195    -0.0030874389046985
 196    0.0086744194179104
 197    9.0348301548426e-05
 198    -0.00020375220382434
 199    0.00028828167456406
 200    0.0015556347827133
 201    -0.0033197057801463
 202    -0.0055080070738349
 203    -0.0055499676863644
 204    -0.0035804829879674
 205    0.0031444328681045
 206    -0.0040548386479944
 207    -0.0049727029866776
 208    0.0019988044680154
 209    0.00013478047562855
 210    -0.00030334111713229
 211    0.00047437622545377
 212    0.0003036850395318
 213    0.0014794901253639
 214    0.0059270275024682
 215    0.0026794671666112
 216    -0.00030073956929758
 217    0.0003346575198054
 218    0.00035658385531346
 219    0.0015528221915988
 220    0.0022117607561716
 221    -6.6427354440528e-05
 222    -0.00018903485326593
 223    -1.3104524744402e-06
 224    -0.0059155187921827
 225    0.0033524977352282
 226    -2.4887856294863e-05
 227    0.00033697697649598
 228    -0.00040831483034031
 229    -0.00060060217739208
 230    0.00058411882881248
 231    0.0081728850106158
 232    0.0012271391613356