[Molden Format]
made by pyscf v[2.2.1]
[Atoms] (AU)
Fe   1   26    10.35569916261654     2.17318504324982   -15.17450078025744
S   2   16     7.65339080448850    -1.15273293598469   -16.53510358994429
S   3   16    14.15404867299231     0.79368497231733   -17.08312416606816
Fe   4   26    11.41394579237297    -2.30546587196938   -18.19806257956155
S   5   16    10.33680190137089     2.36215765570633   -10.54467177507304
S   6   16     8.74943195673624     6.19830168857340   -16.57289811243559
S   7   16    10.86592521624911    -2.83458918684759   -22.77119980100900
S   8   16    12.96352121451632    -6.44396608476686   -16.74297346364645
C   9   6    10.41239094635349     8.40928125431453   -14.19184319548361
H   10   1    12.26432254842725     9.12737718164925   -14.96663090655529
H   11   1     9.20296622663185    10.07224024393178   -13.70051440309670
H   12   1    10.80923343251215     7.25654831832984   -12.45329516088376
C   13   6     6.80301404843422     3.21253441176060   -10.46908273009044
H   14   1     5.68807563494084     1.51178089965205   -10.99820604496866
H   15   1     6.19830168857340     3.89283581660403    -8.54156208303408
H   16   1     6.46286334601251     4.68652078892135   -11.92417184600554
C   17   6     9.84547310898397    -7.97464424566456   -17.87680913838549
H   18   1     9.63760323528181    -7.57780175950590   -19.93661061416140
H   19   1     9.84547310898397   -10.05334298268613   -17.49886391347247
H   20   1     8.25810316434932    -7.02978118338203   -16.87525429236600
C   21   6    14.41861033043142    -3.49599333044536   -23.13024776467636
H   22   1    14.92883638406399    -3.89283581660403   -25.15225471796098
H   23   1    15.49575422143351    -1.81413707958246   -22.41215183734163
H   24   1    14.90993912281834    -5.14005505881697   -21.90192578370907
[GTO]
1 0
 s    6 1.00
          60923.640643  0.0017552243692958
          9147.8893982   0.013449023284001
          2081.3505927   0.066678874640978
          587.55977067    0.23176348548844
           191.0904399    0.46945550248188
          65.732730112     0.3596824938678
 s    3 1.00
          127.25891928   -0.10723431835929
           14.83091301    0.62971616328466
          6.0653307408    0.44472317896179
 s    3 1.00
           10.44994371   -0.21694289195548
          1.7245228003    0.69457867408393
         0.71772177325    0.43298308896347
 s    1 1.00
        0.091449828308                   1
 s    1 1.00
        0.033706691021                   1
 p    5 1.00
          773.43750995  0.0091440529992506
          182.15149714   0.067887577136571
          57.547272758    0.26167978878504
          20.614988935    0.51088040113251
           7.634855789    0.33235475570224
 p    3 1.00
           3.871932799    0.33193859098144
          1.4924724132     0.5553666555499
         0.56061284958    0.23106034201617
 p    1 1.00
              0.134915                   1
 d    4 1.00
          38.968133419   0.033335938558743
          10.800067078    0.17766212505983
          3.6136457999      0.441281781625
          1.2129967888    0.57089200490673
 d    1 1.00
          0.3652439317                   1
 f    1 1.00
                 1.598                   1

2 0
 s    5 1.00
           9184.930301  -0.0054729466134731
          1381.5105503  -0.040954402155135
           313.8714758   -0.18475828956188
          88.053870623   -0.47567280643953
          27.039914905   -0.43495153584169
 s    3 1.00
          45.648731303  -0.091904045808942
          4.9664522326    0.55698777214497
          2.0116242047     0.5111546829846
 s    1 1.00
         0.35661077013                   1
 s    1 1.00
         0.13507221477                   1
 p    5 1.00
          261.98233439  -0.009183054659266
          61.306894736   -0.06590222652599
          19.103729887   -0.24587784518735
          6.6567720378    -0.4823147107602
          2.3959635161   -0.38956314351423
 p    1 1.00
         0.61776161679                   1
 p    1 1.00
         0.16993376871                   1
 d    1 1.00
                  0.55                   1

3 0
 s    5 1.00
           9184.930301  -0.0054729466134731
          1381.5105503  -0.040954402155135
           313.8714758   -0.18475828956188
          88.053870623   -0.47567280643953
          27.039914905   -0.43495153584169
 s    3 1.00
          45.648731303  -0.091904045808942
          4.9664522326    0.55698777214497
          2.0116242047     0.5111546829846
 s    1 1.00
         0.35661077013                   1
 s    1 1.00
         0.13507221477                   1
 p    5 1.00
          261.98233439  -0.009183054659266
          61.306894736   -0.06590222652599
          19.103729887   -0.24587784518735
          6.6567720378    -0.4823147107602
          2.3959635161   -0.38956314351423
 p    1 1.00
         0.61776161679                   1
 p    1 1.00
         0.16993376871                   1
 d    1 1.00
                  0.55                   1

4 0
 s    6 1.00
          60923.640643  0.0017552243692958
          9147.8893982   0.013449023284001
          2081.3505927   0.066678874640978
          587.55977067    0.23176348548844
           191.0904399    0.46945550248188
          65.732730112     0.3596824938678
 s    3 1.00
          127.25891928   -0.10723431835929
           14.83091301    0.62971616328466
          6.0653307408    0.44472317896179
 s    3 1.00
           10.44994371   -0.21694289195548
          1.7245228003    0.69457867408393
         0.71772177325    0.43298308896347
 s    1 1.00
        0.091449828308                   1
 s    1 1.00
        0.033706691021                   1
 p    5 1.00
          773.43750995  0.0091440529992506
          182.15149714   0.067887577136571
          57.547272758    0.26167978878504
          20.614988935    0.51088040113251
           7.634855789    0.33235475570224
 p    3 1.00
           3.871932799    0.33193859098144
          1.4924724132     0.5553666555499
         0.56061284958    0.23106034201617
 p    1 1.00
              0.134915                   1
 d    4 1.00
          38.968133419   0.033335938558743
          10.800067078    0.17766212505983
          3.6136457999      0.441281781625
          1.2129967888    0.57089200490673
 d    1 1.00
          0.3652439317                   1
 f    1 1.00
                 1.598                   1

5 0
 s    5 1.00
           9184.930301  -0.0054729466134731
          1381.5105503  -0.040954402155135
           313.8714758   -0.18475828956188
          88.053870623   -0.47567280643953
          27.039914905   -0.43495153584169
 s    3 1.00
          45.648731303  -0.091904045808942
          4.9664522326    0.55698777214497
          2.0116242047     0.5111546829846
 s    1 1.00
         0.35661077013                   1
 s    1 1.00
         0.13507221477                   1
 p    5 1.00
          261.98233439  -0.009183054659266
          61.306894736   -0.06590222652599
          19.103729887   -0.24587784518735
          6.6567720378    -0.4823147107602
          2.3959635161   -0.38956314351423
 p    1 1.00
         0.61776161679                   1
 p    1 1.00
         0.16993376871                   1
 d    1 1.00
                  0.55                   1

6 0
 s    5 1.00
           9184.930301  -0.0054729466134731
          1381.5105503  -0.040954402155135
           313.8714758   -0.18475828956188
          88.053870623   -0.47567280643953
          27.039914905   -0.43495153584169
 s    3 1.00
          45.648731303  -0.091904045808942
          4.9664522326    0.55698777214497
          2.0116242047     0.5111546829846
 s    1 1.00
         0.35661077013                   1
 s    1 1.00
         0.13507221477                   1
 p    5 1.00
          261.98233439  -0.009183054659266
          61.306894736   -0.06590222652599
          19.103729887   -0.24587784518735
          6.6567720378    -0.4823147107602
          2.3959635161   -0.38956314351423
 p    1 1.00
         0.61776161679                   1
 p    1 1.00
         0.16993376871                   1
 d    1 1.00
                  0.55                   1

7 0
 s    5 1.00
           9184.930301  -0.0054729466134731
          1381.5105503  -0.040954402155135
           313.8714758   -0.18475828956188
          88.053870623   -0.47567280643953
          27.039914905   -0.43495153584169
 s    3 1.00
          45.648731303  -0.091904045808942
          4.9664522326    0.55698777214497
          2.0116242047     0.5111546829846
 s    1 1.00
         0.35661077013                   1
 s    1 1.00
         0.13507221477                   1
 p    5 1.00
          261.98233439  -0.009183054659266
          61.306894736   -0.06590222652599
          19.103729887   -0.24587784518735
          6.6567720378    -0.4823147107602
          2.3959635161   -0.38956314351423
 p    1 1.00
         0.61776161679                   1
 p    1 1.00
         0.16993376871                   1
 d    1 1.00
                  0.55                   1

8 0
 s    5 1.00
           9184.930301  -0.0054729466134731
          1381.5105503  -0.040954402155135
           313.8714758   -0.18475828956188
          88.053870623   -0.47567280643953
          27.039914905   -0.43495153584169
 s    3 1.00
          45.648731303  -0.091904045808942
          4.9664522326    0.55698777214497
          2.0116242047     0.5111546829846
 s    1 1.00
         0.35661077013                   1
 s    1 1.00
         0.13507221477                   1
 p    5 1.00
          261.98233439  -0.009183054659266
          61.306894736   -0.06590222652599
          19.103729887   -0.24587784518735
          6.6567720378    -0.4823147107602
          2.3959635161   -0.38956314351423
 p    1 1.00
         0.61776161679                   1
 p    1 1.00
         0.16993376871                   1
 d    1 1.00
                  0.55                   1

9 0
 s    5 1.00
          1238.4016938  0.0055173650481097
          186.29004992   0.041088828555946
          42.251176346     0.1822538212649
          11.676557932    0.46828459437429
          3.5930506482    0.44575817336002
 s    1 1.00
         0.40245147363                   1
 s    1 1.00
         0.13090182668                   1
 p    3 1.00
          9.4680970621   0.056888332011037
          2.0103545142    0.31294059336471
         0.54771004707    0.76065016509135
 p    1 1.00
         0.15268613795                   1
 d    1 1.00
                   0.8                   1

10 0
 s    3 1.00
             13.010701   0.033485484812989
             1.9622572    0.23472187088125
            0.44453796    0.81377028525955
 s    1 1.00
            0.12194962                   1
 p    1 1.00
                   0.8                   1

11 0
 s    3 1.00
             13.010701   0.033485484812989
             1.9622572    0.23472187088125
            0.44453796    0.81377028525955
 s    1 1.00
            0.12194962                   1
 p    1 1.00
                   0.8                   1

12 0
 s    3 1.00
             13.010701   0.033485484812989
             1.9622572    0.23472187088125
            0.44453796    0.81377028525955
 s    1 1.00
            0.12194962                   1
 p    1 1.00
                   0.8                   1

13 0
 s    5 1.00
          1238.4016938  0.0055173650481097
          186.29004992   0.041088828555946
          42.251176346     0.1822538212649
          11.676557932    0.46828459437429
          3.5930506482    0.44575817336002
 s    1 1.00
         0.40245147363                   1
 s    1 1.00
         0.13090182668                   1
 p    3 1.00
          9.4680970621   0.056888332011037
          2.0103545142    0.31294059336471
         0.54771004707    0.76065016509135
 p    1 1.00
         0.15268613795                   1
 d    1 1.00
                   0.8                   1

14 0
 s    3 1.00
             13.010701   0.033485484812989
             1.9622572    0.23472187088125
            0.44453796    0.81377028525955
 s    1 1.00
            0.12194962                   1
 p    1 1.00
                   0.8                   1

15 0
 s    3 1.00
             13.010701   0.033485484812989
             1.9622572    0.23472187088125
            0.44453796    0.81377028525955
 s    1 1.00
            0.12194962                   1
 p    1 1.00
                   0.8                   1

16 0
 s    3 1.00
             13.010701   0.033485484812989
             1.9622572    0.23472187088125
            0.44453796    0.81377028525955
 s    1 1.00
            0.12194962                   1
 p    1 1.00
                   0.8                   1

17 0
 s    5 1.00
          1238.4016938  0.0055173650481097
          186.29004992   0.041088828555946
          42.251176346     0.1822538212649
          11.676557932    0.46828459437429
          3.5930506482    0.44575817336002
 s    1 1.00
         0.40245147363                   1
 s    1 1.00
         0.13090182668                   1
 p    3 1.00
          9.4680970621   0.056888332011037
          2.0103545142    0.31294059336471
         0.54771004707    0.76065016509135
 p    1 1.00
         0.15268613795                   1
 d    1 1.00
                   0.8                   1

18 0
 s    3 1.00
             13.010701   0.033485484812989
             1.9622572    0.23472187088125
            0.44453796    0.81377028525955
 s    1 1.00
            0.12194962                   1
 p    1 1.00
                   0.8                   1

19 0
 s    3 1.00
             13.010701   0.033485484812989
             1.9622572    0.23472187088125
            0.44453796    0.81377028525955
 s    1 1.00
            0.12194962                   1
 p    1 1.00
                   0.8                   1

20 0
 s    3 1.00
             13.010701   0.033485484812989
             1.9622572    0.23472187088125
            0.44453796    0.81377028525955
 s    1 1.00
            0.12194962                   1
 p    1 1.00
                   0.8                   1

21 0
 s    5 1.00
          1238.4016938  0.0055173650481097
          186.29004992   0.041088828555946
          42.251176346     0.1822538212649
          11.676557932    0.46828459437429
          3.5930506482    0.44575817336002
 s    1 1.00
         0.40245147363                   1
 s    1 1.00
         0.13090182668                   1
 p    3 1.00
          9.4680970621   0.056888332011037
          2.0103545142    0.31294059336471
         0.54771004707    0.76065016509135
 p    1 1.00
         0.15268613795                   1
 d    1 1.00
                   0.8                   1

22 0
 s    3 1.00
             13.010701   0.033485484812989
             1.9622572    0.23472187088125
            0.44453796    0.81377028525955
 s    1 1.00
            0.12194962                   1
 p    1 1.00
                   0.8                   1

23 0
 s    3 1.00
             13.010701   0.033485484812989
             1.9622572    0.23472187088125
            0.44453796    0.81377028525955
 s    1 1.00
            0.12194962                   1
 p    1 1.00
                   0.8                   1

24 0
 s    3 1.00
             13.010701   0.033485484812989
             1.9622572    0.23472187088125
            0.44453796    0.81377028525955
 s    1 1.00
            0.12194962                   1
 p    1 1.00
                   0.8                   1

[5d]
[7f]
[9g]

[MO]
 Sym= A
 Ene=               0
 Spin= Alpha
 Occup=    1.00000
   1    0.0018442100046311
   2    -0.0053124695146399
   3     0.025377217522776
   4    -0.048048309251916
   5     0.012388694297831
   6    0.00058200786128004
   7     -0.00346971784507
   8    -0.0020951279635634
   9    -0.0018115622008537
  10     0.010742635973677
  11    0.0064696187585544
  12    0.0027544195032226
  13    -0.018020598478585
  14    -0.011148337291799
  15      0.24273200257554
  16     -0.12919577520482
  17      0.26053516148159
  18     -0.59940069888094
  19      -0.2759203723111
  20     0.064473029059437
  21     -0.03599558451132
  22     0.072769069903683
  23     -0.16267366129685
  24    -0.074418310394858
  25    -7.3301579699087e-05
  26    -6.886147295858e-06
  27    6.3765335154379e-05
  28    -0.00016323507879156
  29    -0.00012107343517204
  30    -1.5671791998829e-05
  31    -0.00024637861605364
  32    -0.0032593593052724
  33    -0.021406808478724
  34     0.030487726927863
  35     0.024239465097597
  36    -0.013130597224381
  37    0.0014508250857448
  38    0.0016158153065489
  39    -0.021949327565605
  40    0.0024637935093183
  41    0.0026201712183777
  42    -0.031636100415184
  43    0.0038662544464021
  44    0.0028434748886773
  45    0.00065921541783231
  46    0.0015610143447821
  47    -0.0036584139478898
  48    0.0027302377970867
  49    0.0029517981678496
  50    -0.0032215853305728
  51    -0.021179654731848
  52     0.030349324223744
  53     0.024253937119049
  54     0.012402186967509
  55    0.0058121639572255
  56    0.0031134045338819
  57     0.020759851317948
  58    0.0096736759009886
  59     0.005259827501379
  60     0.030413331826245
  61     0.012913123726092
  62    0.0082741944774105
  63    -0.00038061800617821
  64    2.886881680354e-05
  65    -0.0046567500053942
  66    0.0033544005369685
  67    0.00037414929310715
  68    0.0017748084184187
  69    -0.0050401460550476
  70     0.024798474694273
  71    -0.046381207731308
  72     0.013357731755087
  73    -0.00051894444673008
  74    0.0021594564932902
  75    0.0016591305205321
  76    0.0015401324163991
  77    -0.0064232385448963
  78    -0.0049668475745851
  79    -0.0026645090936245
  80      0.01098478824071
  81    0.0082261873189984
  82      0.17697842149414
  83     0.084385602432105
  84      0.10437373033806
  85     -0.28647601112718
  86     -0.23479983710623
  87     0.049058633306095
  88     0.023316103955057
  89     0.030572738862607
  90    -0.080470557298677
  91    -0.065932422892207
  92    3.2369360385152e-05
  93    7.8890807386444e-05
  94    0.00010702395224328
  95    -0.00018670012472893
  96    -4.633663152155e-05
  97    0.00018426590743132
  98    -0.00018176688155475
  99    0.00076950170933119
 100    0.0049140117615116
 101    -0.0051520770633864
 102    -0.0044799899193881
 103    -0.00055973761647349
 104    -0.0050363311682774
 105     0.011505647900489
 106    -0.0008690025240255
 107    -0.0087697935200437
 108     0.019558636596269
 109    -0.0012299924631314
 110     -0.01420742765459
 111     0.032652503390344
 112    -0.00093398568155553
 113    0.00049690018107025
 114    -0.00089137087147856
 115    -0.00052925406571467
 116    9.7331730019797e-06
 117    0.00065809261376407
 118    0.0041991968760517
 119    -0.0041227563890339
 120    -0.0027800514578577
 121    -0.0056499839627875
 122    0.0091942635208763
 123    -0.0068054886096389
 124    -0.0097092869657691
 125      0.01560415602466
 126    -0.011754379971377
 127    -0.016082885553762
 128     0.026312602988281
 129     -0.01915713889269
 130    0.0012456930146838
 131    -0.00026075159495816
 132    -0.00049687324872126
 133    0.0011538213601776
 134    -0.00020842887565325
 135    0.00065068441040933
 136    0.0041453263502751
 137    -0.0038548827785988
 138    -0.0060529501334643
 139    -2.5471549344225e-05
 140    -8.9806486216704e-05
 141    -0.0077943534699929
 142    3.564925066624e-05
 143    6.1357457410805e-06
 144    -0.013165743964585
 145    -0.0018780563232315
 146    -0.0006612925743972
 147    -0.021675777027115
 148    -0.00090475155148924
 149    -0.00025752936993313
 150    -0.00051933977645797
 151    4.3677461540356e-05
 152    -0.00036256432601958
 153    0.00062798230464994
 154    0.0040009989051843
 155    -0.0037720693439001
 156    -0.005862532255997
 157    0.0009547126874721
 158    -0.0065483058935916
 159    0.0029377388624969
 160    0.0014881376806336
 161    -0.011023705507321
 162    0.0051055250802738
 163    0.0043661065632683
 164    -0.017700847234955
 165    0.0080155382131154
 166    0.00054401112604852
 167    0.00012170217181267
 168    0.00031206052341547
 169    0.00049863073157719
 170    0.00084805106769714
 171    0.00040663186879849
 172    -0.0019030424248795
 173    0.0038162295146007
 174    0.0034013583585625
 175    0.0019407769442806
 176    0.0042714162525061
 177     0.002096758594053
 178    -0.0018327167168609
 179    0.0026824682109465
 180    0.00040781226315944
 181    0.00017710616796232
 182    -0.0005087643049328
 183    0.00043803961855998
 184    -9.2399686044483e-05
 185    0.0013758915610264
 186    -0.001044099631155
 187    -3.9639811130098e-05
 188    0.00019395331649834
 189    0.00017630707351988
 190    -0.0017224813831728
 191    -0.0023017762671788
 192    8.8857238750228e-05
 193    2.0508314746917e-05
 194    1.6489281735581e-05
 195    0.0027913200270999
 196    0.0020059431024175
 197    -3.5724522923566e-06
 198    0.00016335341449708
 199    -0.00027376829472311
 200    -0.00028871563900228
 201    0.0002942939973036
 202    0.0013810529714376
 203    -0.0026857536911526
 204    0.0010984577088025
 205    -0.0028092931246623
 206    0.00046305019310478
 207    0.00010566095472678
 208    -0.0022522672215142
 209    -0.00013315727444235
 210    0.00068261363702636
 211    -0.00039244989580269
 212    -0.00031428244419517
 213    -0.00016714757726158
 214    0.0013331439776725
 215    -0.00045992008272114
 216    -0.00011941219147341
 217    9.4705188308845e-05
 218    3.1876563817744e-06
 219    -0.0031343990170049
 220    -0.0030928467499871
 221    -1.0607992206635e-05
 222    4.7444613469762e-05
 223    2.626805560086e-06
 224    0.0042900171451301
 225    0.0049360335395566
 226    -3.2965722045905e-05
 227    -0.0002972441672868
 228    0.0002720677593536
 229    -0.0011653539805726
 230    0.0018872676031695
 231    0.0068179603610629
 232    -0.00062493926674407
 233    0.0035090040308132
 234    8.201793608295e-06
 235    0.00071435282526135
 236     0.003237578499185
 237    0.00049175766671563
 238    0.00027249094512593
 239    0.00011923550231442
 240    0.00013377928630589
 241    0.00062307203720458
 242    -0.00025919647987694
 243    0.0018674578941312
 244    0.00050261309132848
 245    -4.2167599241938e-05
 246    -6.9687162185453e-05
 247    0.00023139293822617
 248    -0.004109595996134
 249    -0.0040983799190481
 250    2.841215047619e-05
 251    -1.5723673712115e-05
 252    5.2048185034044e-05
 253    0.0029909214072892
 254    -0.0017941103902741
 255    -0.00014715817297145
 256    -0.00037298645771508
 257    -2.2944284544149e-05
 258    -0.00096717393409028
 259    0.0013452595936093
 260    0.0069889531285947
 261    0.00016460033732137
 262     0.001270999368398
 263    0.0028474556867829
 264    -0.0014589266450992
 265    0.0012247727506742
 266    0.0028469971810082
 267    -0.00042887449433925
 268    0.0005453551255163
 269    -0.00016669431788158
 270    -4.1795256975429e-06
 271    9.3634553470865e-05
 272    -0.0038682248089629
 273    -0.0038828075802001
 274    -2.5496575538726e-05
 275    3.5467952344044e-05
 276    -4.1502452473482e-05
 277    0.0029687097059333
 278    -0.0015371958884498
 279    0.00024184570794813
 280    -9.9082758659231e-05
 281    -0.00027452517761054
 282    0.0017113763348848
 283    0.00031716271872165
 284    1.8424750261324e-05
 285    0.0001867157169412
 286    -0.000133972867888
 Sym= A
 Ene=               1
 Spin= Alpha
 Occup=    1.00000
   1    0.00025528027551005
   2    -0.00071426603822711
   3    0.0036239230803029
   4    -0.0079040543832663
   5     0.006320279453687
   6    0.0015745345760397
   7    -0.0026814179802779
   8    -0.0020647467260999
   9    -0.0049387480782066
  10    0.0083415127756393
  11    0.0064647110325073
  12    0.0085585469432393
  13    -0.014429781838176
  14    -0.011878482222772
  15      0.09559669461665
  16      0.66136334204466
  17      0.12610371432935
  18      0.18385904488734
  19     -0.37532110142206
  20     0.025344789066722
  21      0.17830454221663
  22     0.033494242349086
  23     0.050072459310216
  24     -0.10069251524867
  25    -0.00012407381947476
  26    0.00022508659507847
  27    0.00014377458755181
  28    -2.4855622283894e-05
  29    0.00022566554614934
  30    0.00020245372557705
  31    9.267437645405e-05
  32    -0.00096670805233482
  33    -0.0063239912749078
  34    0.0087095764154408
  35    0.0054446654187441
  36    0.0014898328161062
  37    -0.0053061918648477
  38    0.0094873362102951
  39    0.0026131042069828
  40    -0.008990647789965
  41     0.015856064495693
  42    0.0047178084084837
  43    -0.015483974261849
  44     0.028513010955908
  45    -0.0034463021908876
  46    0.0010071327489152
  47    -0.0025979803241154
  48    -0.00047675478930528
  49    -0.00077461487360205
  50    -0.0010386999310679
  51    -0.0067706082594703
  52    0.0089977585162867
  53    0.0057556752401013
  54    -0.0031798176494068
  55    0.0071165314890786
  56    -0.0054177257677261
  57    -0.0053880740952802
  58     0.011991699931334
  59    -0.009097807197568
  60    -0.0096458394076955
  61     0.020315489603092
  62    -0.016825430059485
  63    0.0029692437388969
  64    0.00024690453499518
  65    0.00062394170954117
  66    0.0028736204067646
  67     0.001178034829945
  68    9.2180352734855e-06
  69    5.0777706916301e-06
  70    0.00028574946642439
  71    0.00034886254656517
  72    -0.0056484919418413
  73    -0.00042172553584923
  74    0.0004479057916641
  75    0.00064205179824926
  76    0.0013163812578577
  77    -0.0013635024320822
  78    -0.002011328792182
  79    -0.0021920149728228
  80    0.00048502035886349
  81    0.0022484557729575
  82     0.095634710006257
  83     -0.26358389104246
  84     -0.03542027816652
  85      -0.2236480368791
  86     0.089948736483535
  87     0.026720094420504
  88    -0.074718248765147
  89    -0.0098935814208756
  90    -0.063003768653161
  91     0.025375429950323
  92    1.9520736805622e-05
  93    -6.1500583188788e-05
  94    -1.3031144897217e-05
  95    -7.5522585250581e-06
  96    -4.4675858919028e-05
  97    -6.8713823744973e-05
  98    -8.1107684197813e-05
  99    0.0011162447855306
 100    0.0072526652772573
 101    -0.0090788600554094
 102    -0.013289060295775
 103    -0.0077201343899053
 104    -0.0048004189137864
 105    0.0047594800039936
 106    -0.013624742700861
 107    -0.0082202842108069
 108    0.0083352243736142
 109     -0.01605855320677
 110    -0.015499640345804
 111     0.011889356169843
 112    -0.0020311413545304
 113    -0.0029557728666982
 114    -5.4420724929138e-05
 115    0.0025728342871495
 116    -0.0015179321219632
 117    0.0010902362614952
 118    0.0070807816505904
 119    -0.0084657899550141
 120    -0.013013820545618
 121    0.0091712470527724
 122    0.0065447332940637
 123    -0.0048330227020783
 124     0.016032270022848
 125     0.011595116486984
 126    -0.0082070979741577
 127     0.024316190352126
 128     0.014901833678119
 129    -0.016983181762922
 130    -0.00036000648535146
 131    0.00068397407598651
 132    0.0023412800378697
 133    -0.0020332787226515
 134    0.0028971644953406
 135    -0.00020061380955545
 136    -0.0013265522022714
 137    0.0015350302895351
 138    0.0057862306973317
 139    -0.0033261422752173
 140    -0.0019159197612808
 141    -0.001553644429819
 142    -0.0061706555457698
 143    -0.0032585412653402
 144    -0.0024208336392803
 145    -0.0055186458479113
 146    -0.0061848324020427
 147    -0.0056186846329269
 148    0.00015886833307933
 149    0.0016902395319907
 150    -0.00016978170017786
 151    -0.0011518821016818
 152    0.00070917664664687
 153    -0.00024273413650101
 154    -0.0015888321077111
 155    0.0016814774621033
 156    0.0063741752229342
 157    0.0038433453118759
 158    -0.00035586354918174
 159    -0.00091101245171171
 160     0.006962794219764
 161    -0.0003195091412212
 162    -0.0015489315409089
 163    0.0076509740848545
 164    -0.0032405316580267
 165    -0.0036331264261462
 166    0.00078053070084842
 167    -0.00034024608698979
 168    -0.00022813889791909
 169    0.00034461691369736
 170    -0.0019849629287021
 171    -0.0030383392306163
 172    0.0060241539793363
 173     0.013226043811269
 174    -0.0055424088602663
 175    -0.010335467927343
 176    -0.004884042359327
 177    -0.004448043533735
 178    -0.0065910516394687
 179    -0.0042159041074533
 180    0.00093462079179509
 181    0.0005721671631008
 182    0.00060734731145315
 183    -0.00017668226037507
 184    -4.8084150105061e-05
 185    -0.0056196718965386
 186    -0.0065078746108253
 187    0.00012986029270122
 188    -0.00035182652652755
 189    -0.00030146955243974
 190    -0.0028979719862953
 191    -0.0036658676672553
 192    -0.00026199644174132
 193    -7.7819659335197e-05
 194    7.5476560363198e-05
 195    0.0029556742543673
 196    -0.0022766817591713
 197    -0.00012048608626535
 198    0.00029509567138005
 199    -0.00028229422659644
 200    -0.0039248917859067
 201    0.0078634832735519
 202     0.014776341643832
 203     0.014451509266701
 204    -0.0013818395837297
 205    -0.0057482258344984
 206     0.010807785131421
 207    0.00043285155644047
 208    -0.0018987232738532
 209    -0.00089600824841515
 210    0.00075434010374858
 211    -0.0005405544127932
 212    0.0004977885573037
 213    -0.00070709452488819
 214    -0.0018431223400619
 215    -0.0035246568907659
 216    0.00025458706092287
 217    -0.00018258284508676
 218    -0.00025028295777772
 219    -0.0074966259120817
 220    -0.0073302854015688
 221    0.00026640286925343
 222    0.00011847640027313
 223    0.00016436548778664
 224    0.0037711125673351
 225    -0.0034429857063138
 226    3.2180492925318e-05
 227    -0.00026991134410343
 228    0.00038938740194999
 229    0.0018004673197514
 230    -0.0031487291762532
 231    -0.012059586782601
 232    -0.0052958043131156
 233    -0.0046596274640497