[Molden Format]
made by pyscf v[2.0.1]
[Atoms] (AU)
Fe   1   26     3.17068844873907     0.00098706064664     0.12237737881307
Fe   2   26    -3.17068844873907    -0.00098706064664     0.12237737881307
O   3   8     0.00000000000000     0.00000000000000    -0.89004350580623
Cl   4   17     3.53383895113107    -2.07485195383062     3.76228752659000
Cl   5   17     5.54152580550813    -1.85590924879884    -2.78672786652360
Cl   6   17     4.48169216485503     3.92976278472880    -0.95330240907949
Cl   7   17    -3.53383895113107     2.07485195383062     3.76228752659000
Cl   8   17    -5.54152580550813     1.85590924879884    -2.78672786652360
Cl   9   17    -4.48169216485503    -3.92976278472880    -0.95330240907949
[GTO]
1 0
 s    6 1.00
          60923.640643  0.0017552243692958
          9147.8893982   0.013449023284001
          2081.3505927   0.066678874640978
          587.55977067    0.23176348548844
           191.0904399    0.46945550248188
          65.732730112     0.3596824938678
 s    3 1.00
          127.25891928   -0.10723431835929
           14.83091301    0.62971616328466
          6.0653307408    0.44472317896179
 s    3 1.00
           10.44994371   -0.21694289195548
          1.7245228003    0.69457867408393
         0.71772177325    0.43298308896347
 s    1 1.00
        0.091449828308                   1
 s    1 1.00
        0.033706691021                   1
 p    5 1.00
          773.43750995  0.0091440529992506
          182.15149714   0.067887577136571
          57.547272758    0.26167978878504
          20.614988935    0.51088040113251
           7.634855789    0.33235475570224
 p    3 1.00
           3.871932799    0.33193859098144
          1.4924724132     0.5553666555499
         0.56061284958    0.23106034201617
 p    1 1.00
              0.134915                   1
 d    4 1.00
          38.968133419   0.033335938558743
          10.800067078    0.17766212505983
          3.6136457999      0.441281781625
          1.2129967888    0.57089200490673
 d    1 1.00
          0.3652439317                   1
 f    1 1.00
                 1.598                   1

2 0
 s    6 1.00
          60923.640643  0.0017552243692958
          9147.8893982   0.013449023284001
          2081.3505927   0.066678874640978
          587.55977067    0.23176348548844
           191.0904399    0.46945550248188
          65.732730112     0.3596824938678
 s    3 1.00
          127.25891928   -0.10723431835929
           14.83091301    0.62971616328466
          6.0653307408    0.44472317896179
 s    3 1.00
           10.44994371   -0.21694289195548
          1.7245228003    0.69457867408393
         0.71772177325    0.43298308896347
 s    1 1.00
        0.091449828308                   1
 s    1 1.00
        0.033706691021                   1
 p    5 1.00
          773.43750995  0.0091440529992506
          182.15149714   0.067887577136571
          57.547272758    0.26167978878504
          20.614988935    0.51088040113251
           7.634855789    0.33235475570224
 p    3 1.00
           3.871932799    0.33193859098144
          1.4924724132     0.5553666555499
         0.56061284958    0.23106034201617
 p    1 1.00
              0.134915                   1
 d    4 1.00
          38.968133419   0.033335938558743
          10.800067078    0.17766212505983
          3.6136457999      0.441281781625
          1.2129967888    0.57089200490673
 d    1 1.00
          0.3652439317                   1
 f    1 1.00
                 1.598                   1

3 0
 s    5 1.00
          2266.1767785  -0.0053893503921743
          340.87010191   -0.04023472138896
          77.363135167   -0.18008184205526
           21.47964494   -0.46828857657651
          6.6589433124   -0.44692617160187
 s    1 1.00
         0.80975975668                   1
 s    1 1.00
         0.25530772234                   1
 p    3 1.00
          17.721504317   0.062630248763161
           3.863550544    0.33331138482352
          1.0480920883    0.74148638308122
 p    1 1.00
         0.27641544411                   1
 d    1 1.00
                   1.2                   1

4 0
 s    5 1.00
          10449.827566  0.0054265953789407
          1571.7365221   0.040626378128836
          357.12065523    0.18359747852877
          100.25185935    0.47438948768198
          30.812727554    0.43735181104122
 s    3 1.00
          51.923789434  -0.092754154848099
          5.7045760975    0.56380825544207
          2.3508376809    0.50367044629712
 s    1 1.00
         0.44605124672                   1
 s    1 1.00
          0.1684885619                   1
 p    5 1.00
          307.66790569  -0.0088797025588865
          72.102015515  -0.064284071721237
          22.532680262   -0.24288739736006
          7.8991765444   -0.48340836369878
          2.8767268321   -0.38952563875509
 p    1 1.00
         0.77459363955                   1
 p    1 1.00
         0.21037699698                   1
 d    1 1.00
                  0.65                   1

5 0
 s    5 1.00
          10449.827566  0.0054265953789407
          1571.7365221   0.040626378128836
          357.12065523    0.18359747852877
          100.25185935    0.47438948768198
          30.812727554    0.43735181104122
 s    3 1.00
          51.923789434  -0.092754154848099
          5.7045760975    0.56380825544207
          2.3508376809    0.50367044629712
 s    1 1.00
         0.44605124672                   1
 s    1 1.00
          0.1684885619                   1
 p    5 1.00
          307.66790569  -0.0088797025588865
          72.102015515  -0.064284071721237
          22.532680262   -0.24288739736006
          7.8991765444   -0.48340836369878
          2.8767268321   -0.38952563875509
 p    1 1.00
         0.77459363955                   1
 p    1 1.00
         0.21037699698                   1
 d    1 1.00
                  0.65                   1

6 0
 s    5 1.00
          10449.827566  0.0054265953789407
          1571.7365221   0.040626378128836
          357.12065523    0.18359747852877
          100.25185935    0.47438948768198
          30.812727554    0.43735181104122
 s    3 1.00
          51.923789434  -0.092754154848099
          5.7045760975    0.56380825544207
          2.3508376809    0.50367044629712
 s    1 1.00
         0.44605124672                   1
 s    1 1.00
          0.1684885619                   1
 p    5 1.00
          307.66790569  -0.0088797025588865
          72.102015515  -0.064284071721237
          22.532680262   -0.24288739736006
          7.8991765444   -0.48340836369878
          2.8767268321   -0.38952563875509
 p    1 1.00
         0.77459363955                   1
 p    1 1.00
         0.21037699698                   1
 d    1 1.00
                  0.65                   1

7 0
 s    5 1.00
          10449.827566  0.0054265953789407
          1571.7365221   0.040626378128836
          357.12065523    0.18359747852877
          100.25185935    0.47438948768198
          30.812727554    0.43735181104122
 s    3 1.00
          51.923789434  -0.092754154848099
          5.7045760975    0.56380825544207
          2.3508376809    0.50367044629712
 s    1 1.00
         0.44605124672                   1
 s    1 1.00
          0.1684885619                   1
 p    5 1.00
          307.66790569  -0.0088797025588865
          72.102015515  -0.064284071721237
          22.532680262   -0.24288739736006
          7.8991765444   -0.48340836369878
          2.8767268321   -0.38952563875509
 p    1 1.00
         0.77459363955                   1
 p    1 1.00
         0.21037699698                   1
 d    1 1.00
                  0.65                   1

8 0
 s    5 1.00
          10449.827566  0.0054265953789407
          1571.7365221   0.040626378128836
          357.12065523    0.18359747852877
          100.25185935    0.47438948768198
          30.812727554    0.43735181104122
 s    3 1.00
          51.923789434  -0.092754154848099
          5.7045760975    0.56380825544207
          2.3508376809    0.50367044629712
 s    1 1.00
         0.44605124672                   1
 s    1 1.00
          0.1684885619                   1
 p    5 1.00
          307.66790569  -0.0088797025588865
          72.102015515  -0.064284071721237
          22.532680262   -0.24288739736006
          7.8991765444   -0.48340836369878
          2.8767268321   -0.38952563875509
 p    1 1.00
         0.77459363955                   1
 p    1 1.00
         0.21037699698                   1
 d    1 1.00
                  0.65                   1

9 0
 s    5 1.00
          10449.827566  0.0054265953789407
          1571.7365221   0.040626378128836
          357.12065523    0.18359747852877
          100.25185935    0.47438948768198
          30.812727554    0.43735181104122
 s    3 1.00
          51.923789434  -0.092754154848099
          5.7045760975    0.56380825544207
          2.3508376809    0.50367044629712
 s    1 1.00
         0.44605124672                   1
 s    1 1.00
          0.1684885619                   1
 p    5 1.00
          307.66790569  -0.0088797025588865
          72.102015515  -0.064284071721237
          22.532680262   -0.24288739736006
          7.8991765444   -0.48340836369878
          2.8767268321   -0.38952563875509
 p    1 1.00
         0.77459363955                   1
 p    1 1.00
         0.21037699698                   1
 d    1 1.00
                  0.65                   1

[5d]
[7f]
[9g]

[MO]
 Sym= A
 Ene=               0
 Spin= Alpha
 Occup=    1.00000
   1    -1.3973220280364e-05
   2    1.1844580512164e-05
   3    -0.00035603056313313
   4     0.002934096659753
   5    0.0012576405910662
   6    0.00023249290797677
   7    -0.0016255069672943
   8    -0.00015890070352941
   9    -0.00089893716527186
  10    0.0056186224909609
  11    0.00059089607137293
  12    0.0090498038342582
  13    -0.027069105198195
  14    -0.0051225794328452
  15    -0.0016672849284747
  16    0.0007902226628741
  17    -0.0014551294572418
  18    -0.0013636708232165
  19       1.0683924490708
  20    0.0079533733079981
  21    -0.0042545537110787
  22    0.0047102087533779
  23    0.0065882067778838
  24     -0.24477842358239
  25    8.9598080031882e-06
  26    0.00049798908945798
  27    -0.0002002745373715
  28    -0.00031417387771366
  29    0.0011398197505907
  30    0.00040817344854828
  31    0.00078981184699602
  32    -6.4113316821186e-06
  33    1.4664448496763e-05
  34    -0.00011759757322092
  35    0.00076915855482342
  36    -0.00075944849817282
  37    -1.3990486305019e-05
  38    -0.00085618265385311
  39    6.7744500395709e-05
  40    3.4943069396845e-05
  41    0.0026331027668983
  42    -0.00022380535787152
  43    0.0002845819423383
  44    0.0037086407488978
  45    0.00082216073112146
  46    8.2198792836749e-05
  47    -1.0896366855857e-06
  48    0.00077907439239202
  49    8.9059977327671e-05
  50    -0.0023632241346514
  51    -0.0013513448271163
  52    -3.1068468252729e-05
  53    -0.0053887162328574
  54    -0.0010836341952631
  55     0.019109405074732
  56    -1.6404175383265e-05
  57    1.7283636277023e-05
  58    -6.8874741688854e-05
  59    -4.7255288430449e-05
  60    -0.0002281296181294
  61    -1.8654483010034e-05
  62    0.00052699343313957
  63    3.7953070973172e-06
  64    -0.00039209086230466
  65    0.0026499984370864
  66    1.2122672351166e-05
  67     0.015930110305838
  68    0.00033301196566391
  69    0.00066869292942847
  70    -0.088567900666721
  71    -0.00068765378345078
  72    -0.00014364303499831
  73    0.00022827800895581
  74    -0.0081200945853145
  75    -3.4883399451256e-05
  76    -0.014740741940199
  77    -8.7786680270187e-05
  78    0.00068147145498521
  79    0.00058825526312145
  80    -0.0076930235618937
  81    0.0006383281156046
  82    -2.7560382170925e-05
  83    0.00050665199427073
  84    0.0039740199478842
  85    -0.0006701073958073
  86    0.00014718917410412
  87    -0.011489394024021
  88    0.00088152599201547
  89    0.0094075253209968
  90    -0.0037802874214871
  91     0.007858486744974
  92    0.0014833127330952
  93    0.0007027877889441
  94    -0.0022112933630285
  95    -0.00022865860223891
  96    0.0021271157722986
  97    0.0040218276674898
  98    -0.028957217576699
  99    0.0012330770902239
 100    -0.00053447493335184
 101    -0.0007909812171212
 102    0.0033203619335168
 103    -0.0026860560686933
 104    0.00034466292630725
 105     0.011177947443032
 106    -0.0023104328116337
 107    -0.026848934309252
 108    -0.011042574278033
 109     0.010572535294109
 110    -0.0052490112578389
 111    -0.0024592480469494
 112    0.0028229525853145
 113    0.00031562580159988
 114    -0.0026966941244024
 115    -0.0032953664410509
 116     0.027434116195128
 117    -0.0015685254914202
 118    -0.0013843496072725
 119    0.00035194535662587
 120    -0.0060448632699781
 121    -0.00086479988051848
 122    -0.00038118354623805
 123    0.0041483260466012
 124    -0.029241359159627
 125     0.011008845041372
 126    -0.0043890253386908
 127    0.00018309844578501
 128    -0.008998686653975
 129    -0.015608877474848
 130    -0.0011920500420696
 131    0.00010072989180198
 132    -0.00069048378166304
 133    0.0012911176273534
 134    -0.00034086379353416
 135    0.00019573293751984
 136    9.315823704264e-05
 137    -0.00072111965094137
 138    0.00047117966680892
 139    0.0002298829324574
 140    -0.0014589202039123
 141    -0.00017774400089904
 142    -0.00024413106566551
 143    -0.001305142942263
 144    -0.00016490580788552
 145    0.00049772293996903
 146    0.00029960366411176
 147    -0.00018768267722965
 148    0.00010513012974416
 149    0.00010090445530246
 150    -0.00066999587811218
 151    0.0008450315661574
 152    0.00083304305250399
 153    0.00049997774327604
 154    7.1875559203157e-05
 155    0.00052862542203769
 156    0.00090716140869606
 157    0.00027366480922679
 158    0.00098024163406957
 159    0.0012733264593888
 160    -0.00074642029065623
 161    0.0016153548974203
 162    0.00027931583285593
 163    -0.00011062747542536
 164    -0.00036587011600747
 165    -0.00036823030265325
 166    -0.00022206716163484
 167    -0.00018709894436535
 168    0.0012057479777102
 169     -0.00144323407802
 170    -0.00091527378582825
 171    -0.00062125435239506
 172    -0.00092168252476836
 173    -0.00038492250675677
 174    -0.00085215526118166
 175    -0.0013886462459738
 176    -0.00069497560658707
 177    -0.0020999320448978
 178    -0.0034191868634603
 179    -0.0010992033054969
 180    -7.345432464002e-05
 181    0.00013838217117749
 182    -0.0003258736014732
 183    0.00051867594637484
 184    0.00059847915162929
 Sym= A
 Ene=               1
 Spin= Alpha
 Occup=    1.00000
   1    -0.00029143517519865
   2    0.0006778083636234
   3    -0.005068092641053
   4     0.019056393048399
   5    0.0028344576992944
   6    -0.00061285535574488
   7    9.5933314010701e-05
   8    0.0011116797581332
   9    0.0021455542694657
  10    -0.00058774206977822
  11    -0.0044384196075704
  12    -0.0099145276358816
  13     0.011849846563215
  14     0.048156252239116
  15    -0.00090518528996631
  16    -0.0022418062364346
  17       1.0708090432431
  18    0.0023321405260181
  19    -0.001444243323503
  20    0.0048722294336961
  21     0.010200028412141
  22     -0.24843456978335
  23    -0.010740450424125
  24     0.004692573636346
  25    0.00039769962812997
  26    -0.00021069769550654
  27    -0.00085201688574536
  28    -0.00017862677720231
  29    -0.00091824748493307
  30    -0.00027136666960191
  31    0.00050834725354617
  32    4.5344455956735e-05
  33    -0.00012973538144805
  34    0.00072221803851299
  35    -0.00073039276272804
  36    -0.00039480670162017
  37    -0.0001670368436427
  38    -8.9175564490958e-05
  39    0.00018336239525331
  40    0.00062211993082614
  41    0.00019023169656612
  42    -0.00059069490511103
  43    -0.0015395439169273
  44    0.0042084609527919
  45    0.0012269203177662
  46    -0.00017005009857521
  47    0.00011462800283278
  48    0.00018532600722534
  49    0.00022479676001944
  50    -0.00082920062192415
  51    0.0010083568401979
  52    -0.0018295232933147
  53    -0.0010310392495331
  54    -0.00093435131922377
  55    0.0056588585436521
  56    -7.5315132878543e-07
  57    -0.00012698343708545
  58    -3.159652954293e-06
  59    -6.9379532723821e-06
  60    -9.2828515422782e-05
  61    3.0242519088334e-05
  62    0.00020727223274775
  63    7.959488098683e-06
  64    0.0005828325266589
  65    -0.00091765543291955
  66    -0.00077988546227621
  67     0.004100897445151
  68    -0.00068258189398599
  69    0.0048342919659007
  70    -0.025713097407378
  71    0.0025890555203582
  72    -0.00012788230223292
  73    -0.00013809737864341
  74    0.0015968553094763
  75    0.00051658542509502
  76    -0.0063774841219731
  77    -0.00031229147103902
  78    0.0031634063828333
  79    0.0069691942042487
  80    -0.048913602098384
  81    0.00022479488616854
  82    -0.0010307994290608
  83    0.0016348477642385
  84    -0.00022755436460813
  85    -0.0035084548448097
  86    0.0023868989878277
  87    0.0071884189685724
  88    -0.014595505954775
  89     0.039992609948228
  90    -0.019292470074146
  91    -0.0046839570377419
  92     0.014582582150317
  93    0.0011194770559731
  94    0.0018609017675139
  95    0.00020565986156885
  96    -0.0022148445324836
  97    -0.004900335941528
  98     0.035389379348037
  99    -0.00032412470433514
 100    0.00075394988457596
 101    0.00095688031304074
 102    0.0012565631849533
 103    0.0030950485272748
 104     0.002631425542551
 105    -0.027364434339019
 106    0.0068660081510401
 107     0.019143353526613
 108     0.002564770447862
 109    -0.015987862919215
 110    0.0059590548844356
 111     0.008862284103754
 112    -0.0062802858894955
 113    -9.293827185163e-05
 114    0.0011150638012699
 115    0.0043529005908192
 116     -0.02016072598039
 117    1.6098600647486e-05
 118    0.00047761169100197
 119    -0.000589891520201
 120    -0.00092845274800223
 121    -3.5493574935325e-05
 122    -0.0041115805210791
 123    0.0093526574529483
 124     0.018464936384533
 125    0.0072214580556692
 126    0.0092996659283206
 127    -0.0011347108933896
 128    -0.0034454732989569
 129    0.0082206719491578
 130    -0.0088643425125084
 131    8.8761178856996e-06
 132    -0.00011496212042042
 133    0.0013152482498925
 134    -0.0028869365097197
 135    6.9510202431352e-05
 136    0.00014938163343247
 137    -5.9918020960461e-05
 138    0.00055811110757994
 139    0.0002924975381992
 140    -0.0003844561963143
 141    -0.0014785710910836
 142    0.00048462622972384
 143    0.0014960169404412
 144    -0.0001623769263723
 145    0.00017057996397989
 146    3.0046945945913e-06
 147    -0.00021927372150332
 148    2.5852933391172e-05
 149    5.7145379137133e-05
 150    -0.00039009875112415
 151    0.00079962957008704
 152    -0.0003565180755789
 153    0.00025455701969751
 154    -6.8230175271959e-05
 155    0.00023500377513046
 156    0.00052463971245322
 157    -6.1863200144177e-05
 158    0.00054984568468405
 159    0.00034809519930065
 160    -0.00059562284644365
 161    9.4129456612025e-05
 162    1.2326375927143e-05
 163    -0.00010562854745346
 164    -0.00012320803331183
 165    -0.00018513296233397
 166    -8.147782892451e-05
 167    -3.4636314026574e-05
 168    0.00022464790618038
 169    -0.00054954984206014
 170     0.001122627885835
 171    -0.0001109600223765
 172    -0.00018606854883291
 173    -0.00015682204955113
 174    -0.00019602286785633
 175    -0.00039010730502729
 176    -0.00034507937281452
 177    9.1835889979519e-05
 178    0.00022095151586483
 179    -5.7969813286673e-05
 180    -7.0237621398134e-05
 181    0.00013227960011612
 182    8.1360249358642e-06
 183    5.7617813000553e-05
 184     0.000328456030768
 Sym= A
 Ene=               2
 Spin= Alpha
 Occup=    1.00000
   1    0.00030124454376448
   2    -0.00094786975156334
   3    0.0038770934733605
   4    0.0042309017718369
   5    -0.0023220601643045
   6    0.00093506934740602
   7    0.0011191303545667
   8    -0.00072131816570053
   9    -0.0026368308888097
  10    -0.0043659757106781
  11    0.0027352470311468
  12     -0.02706021766289
  13     0.042604790168361
  14    -0.030263523217092
  15       1.0700499211526
  16    -0.0009636978224694
  17    -0.0010139902739498
  18    -0.0012252768032939
  19    -0.0016315057262995
  20     -0.24813613361363
  21    0.0034432514310522
  22    0.0051167686340987
  23     0.010090303938014
  24    0.0076882039335712
  25    8.7540105861123e-05
  26    0.00019075808541127
  27    0.00087149119845537
  28    0.00022312206793112
  29    -0.00016403019773037
  30    -0.0014416195650581
  31    -0.00019153592929205
  32     0.000136266659738
  33    -0.00040986746326203
  34    0.0021174670572398
  35    0.00032677689346801
  36    -0.0042722518144702
  37    -0.00074540656824957
  38    0.00012818217179709
  39    -0.00029623384178745
  40    0.0026252886825286
  41    -0.0004134574548645
  42    0.00081646250452382
  43    0.00023010520468866
  44    0.0017710066128517
  45    0.0025287337368489
  46    0.00099203701280799
  47    -0.00073290755849986
  48    0.00030207308382422
  49    -0.00098315366361454
  50    2.1693503573567e-05
  51    -0.007567292685395
  52     0.006509284744606
  53    -0.0017440455550005
  54    0.0076037283193388
  55    -0.00088779395844778
  56    -0.00013752497837886
  57    -0.0003098439479719
  58    -5.034676728491e-05
  59    0.00019480162974582
  60    -9.7845863867623e-05
  61    0.0001142262022453
  62    9.7666541757181e-05
  63    -0.00038850800399538
  64    0.00029877833503481
  65    -0.038161851508938
  66    -0.0060967209915247
  67    -0.00011051276438265
  68    0.0056484842741545
  69    -0.016854393610973
  70    -0.00097062309894697
  71    -0.051043550411444
  72    -0.0010618925834871
  73     -0.01047628555856
  74    -0.00020279862040704
  75    8.8005829435535e-05
  76    -0.00047902381699523
  77    0.00032711224544829
  78    -0.0030819852104281
  79    -0.005936576456917
  80     0.045334904986962
  81    -0.000648479638033
  82    0.00071709293194139
  83    -0.0019467268639442
  84    -0.0013012135660708
  85    -0.0014170306980709
  86    -0.0051360690778498
  87    -0.0035636214816825
  88     0.031493904121071
  89    -0.027663829365267
  90    0.0051013555036923
  91    0.0024073737317529
  92    -0.020368332844385
  93    -0.009232958524196
  94    -0.0026888621439928
  95    4.473354334361e-05
  96    -0.00061690600110931
  97    -0.0029651547556039
  98     0.015157693070848
  99    -3.7919565130161e-05
 100    -9.6354940223265e-06
 101    0.0005363413393303
 102    0.0017031986114794
 103    -0.0010564328549658
 104    0.0032175195255944
 105    -0.015119777520879
 106    0.0092324980044058
 107    -0.00034786468221072
 108    -0.007949291241276
 109    -0.0048188175387717
 110    0.0027043724245853
 111    0.0028968552511679
 112    -0.0094545841744262
 113    -0.00011834091370033
 114    0.0012424840983319
 115    0.0062667342531938
 116    -0.030980572403999
 117    -6.7255683971252e-05
 118    0.00056826759067242
 119    0.00017906953879395
 120    -0.0011621131198708
 121    0.00052298423087241
 122     0.002040108489577
 123     0.011618170120009
 124     0.021808782908796
 125    -0.012129914149087
 126    0.0042131321975312
 127    0.0038877591837717
 128    0.0099513076771056
 129    0.0057361611096859
 130    -0.0060299513995916
 131    0.00011033538399967
 132    -0.00073398793632619
 133    0.00070068497732065
 134    0.0016552694894168
 135    0.0004207908755476
 136    -0.00046065921659049
 137    -0.00052002526497246
 138    0.0010264395996281
 139    -0.00081323394569693
 140    -0.00089181385482448
 141    -3.6603401038355e-06
 142    -0.0015076946085195
 143    -0.0019051141559603
 144    0.00031161638641938
 145    0.00032942156229535
 146    0.00024693889518586
 147    -0.00022169758382952
 148    0.00021604800411313
 149    -0.00010500550313627
 150    0.00075746426026396
 151    -0.0021667956114153
 152    0.0021481211782091
 153    -0.00032290159605145
 154    0.00026290037612989
 155    -0.00032957161445767
 156    -0.00084840502883572
 157    0.00054656047518934
 158    -0.00058257186557645
 159    0.00025949378054464
 160    0.00041984051062629
 161    -0.0012640861414042
 162    -0.00050544883154627
 163    -2.9491050456459e-05
 164    0.00024138751520801
 165    0.00025797577311134
 166    -0.00020939285795397
 167    9.1509404807241e-06
 168    -7.5835309617133e-06
 169    -0.001307167443665
 170    0.0038314561596777
 171    0.00015753803477827
 172    6.8441974651274e-05
 173    0.00021058187924825
 174    6.1282924703621e-05
 175    -6.4100544650725e-05
 176    0.00038298628808175
 177    0.0015541360891152
 178    0.0016450290340884
 179    0.00056269583703014
 180    -0.00020006322588401
 181    -6.598173649149e-05
 182    -0.00016102224010641
 183    -0.00016099422136193
 184    0.00033793301063361
 Sym= A
 Ene=               3
 Spin= Alpha
 Occup=    1.00000
   1    -0.00030841804653426
   2    0.00097288580358482
   3    -0.0041418836500257
   4    -0.0068859921103867
   5    0.0062609320007135
   6    0.00019961297945755
   7    -0.00019432168237729
   8    -0.0015935403431617
   9    -0.0015209537746447
  10    0.00072866788938545
  11    0.0053936253997253
  12     0.060477208374206
  13    -0.0068231315390594
  14    -0.014826837748874
  15    -0.0010228243300327
  16       1.0710730392763
  17    -0.0021844642718355
  18    0.0026207132583732
  19    0.00078043708187337
  20    0.0035961314144436
  21     -0.25716433612733
  22     0.010147843338781
  23    -0.014240492582517
  24    -0.0040967667893014
  25    -0.00075288937831451
  26    0.00047468764948972
  27    -0.00034392155003783
  28    0.0013765423213796
  29    0.00085449135058974
  30    0.00097586128905395
  31    -0.00041969057824834
  32    0.00068849830596604
  33    -0.0021301533166579
  34    0.0090916243586252
  35     0.011814706579723
  36    -0.0010395494333296
  37    -0.0029632360435841
  38    -2.3866847184274e-05
  39    0.00028186434935752
  40    0.0099356231177466
  41    9.3826977747237e-05
  42    -0.0010438088245329
  43    0.0090219866319021
  44    -0.0010047496187873
  45    -0.0053415292647399
  46    0.00023661355178123
  47    -0.0011376375620715
  48    0.00021991959936544
  49    0.00047185908859224
  50    1.0582094516037e-05
  51    -0.0072168767586429
  52    0.0038991214135653
  53    -0.0021754583755148
  54    0.0072198302432973
  55    -8.0154276287242e-05
  56    -0.00015160465789474
  57    -3.0282824537612e-05
  58    3.8424044176227e-05
  59    0.00023002318406566
  60    3.5951362977011e-05
  61    -5.1361082811212e-05
  62    -4.0014020353013e-07
  63    0.0021722026704088
  64     0.009695638558165
  65     0.035461204059054
  66     0.002075986151973
  67    0.00015258359352437
  68     0.015091049809392
  69     0.068527793633918
  70    -0.00017618200630195
  71    -0.059521242349649
  72     -0.01220862995201
  73    -0.0061063057228832
  74    -0.00012915286510398
  75    0.0093412747156474
  76    0.00019887731183003
  77    0.00015254350003388
  78    -0.0012613737529782
  79    0.0011088775400465
  80    0.0056242036564104
  81    -0.00064230060340607
  82    0.00046258062768727
  83    -0.00068167317355371
  84    -0.0041146727979423
  85    0.00036485588208543
  86    -0.0014628463803299
  87     0.010533379096001
  88    0.0069955420813611
  89    -0.006255569776771
  90    0.0028521534406703
  91    -0.0086966149909089
  92    -0.004481097369053
  93    -0.0027481695890445
  94    0.0062556017694362
  95    -0.00040810427146158
  96    0.0038317110100709
  97    0.0043041072267004
  98    -0.046579917365278
  99    0.0021471103030292
 100    -0.00088040139265302
 101    -0.0012859735935792
 102     0.006550179761509
 103    -0.00018116448205316
 104    -0.0022738398971781
 105     0.014144703716461
 106    -0.027191813549237
 107    -0.031015226891394
 108    -0.0058015007221285
 109     0.013053166250094
 110    -0.016544438826637
 111    0.0043770549097931
 112     0.010387620141345
 113    -0.000117267964918
 114      0.00101911689116
 115    0.00031814781662214
 116    -0.010127394125597
 117    0.00067581381213258
 118    0.00046481501791084
 119    8.436679599265e-05
 120      0.00328276134747
 121    -9.1912025838258e-05
 122    -0.0009239344544802
 123    -0.0071094102026382
 124     0.013163937776875
 125      0.00379183102612
 126    0.0036917494464334
 127    -0.0003269567317907
 128    -0.0011596507451703
 129    0.0075813510725008
 130    0.0022055038205823
 131    0.0001724550765847
 132    -0.0011237231862746
 133    0.0010791265903516
 134    0.0022319742203785
 135    0.00066930793713781
 136    -0.00065722336770984
 137    -0.0010170787835569
 138    0.0011027474038366
 139    -0.0010043323055238
 140    -0.0015963434492979
 141    0.0014610083875354
 142    -0.0029255242757776
 143    -0.0042796416071558
 144    0.00026219327963306
 145    0.00068086333933071
 146    0.0004641795224918
 147    -0.00013304080542204
 148    0.00039916658118571
 149    -1.8799267701215e-05
 150    0.00010675701636041
 151    0.00066925984372938
 152    -0.0028211560221446
 153    0.00026369678299235
 154    0.00011740553400381
 155    -8.9854466243346e-05
 156    0.00075084435145693
 157    0.00018478255216682
 158    -0.00023554917479108
 159    -0.0013361482019162
 160    0.00093169518030927
 161    -0.00052868497635148
 162    0.00012246311774812
 163    -0.00026134479535732
 164    6.2729941419294e-05
 165    -0.00015927190454312
 166    0.00014014481192205
 167    5.9932053947183e-05
 168    -0.00041064891396257
 169    0.0011861675508376
 170    -0.0020213837323679
 171    0.00052566920297001
 172    0.00034964441744246
 173    0.00023249487131072
 174    0.0010793254489704
 175    0.00060259986934051
 176    0.00033751082374731