[Molden Format]
made by pyscf v[2.0.1]
[Atoms] (AU)
Fe   1   26     3.17068844873907     0.00098706064664     0.12237737881307
Fe   2   26    -3.17068844873907    -0.00098706064664     0.12237737881307
O   3   8     0.00000000000000     0.00000000000000    -0.89004350580623
Cl   4   17     3.53383895113107    -2.07485195383062     3.76228752659000
Cl   5   17     5.54152580550813    -1.85590924879884    -2.78672786652360
Cl   6   17     4.48169216485503     3.92976278472880    -0.95330240907949
Cl   7   17    -3.53383895113107     2.07485195383062     3.76228752659000
Cl   8   17    -5.54152580550813     1.85590924879884    -2.78672786652360
Cl   9   17    -4.48169216485503    -3.92976278472880    -0.95330240907949
[GTO]
1 0
 s    6 1.00
          60923.640643  0.0017552243692958
          9147.8893982   0.013449023284001
          2081.3505927   0.066678874640978
          587.55977067    0.23176348548844
           191.0904399    0.46945550248188
          65.732730112     0.3596824938678
 s    3 1.00
          127.25891928   -0.10723431835929
           14.83091301    0.62971616328466
          6.0653307408    0.44472317896179
 s    3 1.00
           10.44994371   -0.21694289195548
          1.7245228003    0.69457867408393
         0.71772177325    0.43298308896347
 s    1 1.00
        0.091449828308                   1
 s    1 1.00
        0.033706691021                   1
 p    5 1.00
          773.43750995  0.0091440529992506
          182.15149714   0.067887577136571
          57.547272758    0.26167978878504
          20.614988935    0.51088040113251
           7.634855789    0.33235475570224
 p    3 1.00
           3.871932799    0.33193859098144
          1.4924724132     0.5553666555499
         0.56061284958    0.23106034201617
 p    1 1.00
              0.134915                   1
 d    4 1.00
          38.968133419   0.033335938558743
          10.800067078    0.17766212505983
          3.6136457999      0.441281781625
          1.2129967888    0.57089200490673
 d    1 1.00
          0.3652439317                   1
 f    1 1.00
                 1.598                   1

2 0
 s    6 1.00
          60923.640643  0.0017552243692958
          9147.8893982   0.013449023284001
          2081.3505927   0.066678874640978
          587.55977067    0.23176348548844
           191.0904399    0.46945550248188
          65.732730112     0.3596824938678
 s    3 1.00
          127.25891928   -0.10723431835929
           14.83091301    0.62971616328466
          6.0653307408    0.44472317896179
 s    3 1.00
           10.44994371   -0.21694289195548
          1.7245228003    0.69457867408393
         0.71772177325    0.43298308896347
 s    1 1.00
        0.091449828308                   1
 s    1 1.00
        0.033706691021                   1
 p    5 1.00
          773.43750995  0.0091440529992506
          182.15149714   0.067887577136571
          57.547272758    0.26167978878504
          20.614988935    0.51088040113251
           7.634855789    0.33235475570224
 p    3 1.00
           3.871932799    0.33193859098144
          1.4924724132     0.5553666555499
         0.56061284958    0.23106034201617
 p    1 1.00
              0.134915                   1
 d    4 1.00
          38.968133419   0.033335938558743
          10.800067078    0.17766212505983
          3.6136457999      0.441281781625
          1.2129967888    0.57089200490673
 d    1 1.00
          0.3652439317                   1
 f    1 1.00
                 1.598                   1

3 0
 s    5 1.00
          2266.1767785  -0.0053893503921743
          340.87010191   -0.04023472138896
          77.363135167   -0.18008184205526
           21.47964494   -0.46828857657651
          6.6589433124   -0.44692617160187
 s    1 1.00
         0.80975975668                   1
 s    1 1.00
         0.25530772234                   1
 p    3 1.00
          17.721504317   0.062630248763161
           3.863550544    0.33331138482352
          1.0480920883    0.74148638308122
 p    1 1.00
         0.27641544411                   1
 d    1 1.00
                   1.2                   1

4 0
 s    5 1.00
          10449.827566  0.0054265953789407
          1571.7365221   0.040626378128836
          357.12065523    0.18359747852877
          100.25185935    0.47438948768198
          30.812727554    0.43735181104122
 s    3 1.00
          51.923789434  -0.092754154848099
          5.7045760975    0.56380825544207
          2.3508376809    0.50367044629712
 s    1 1.00
         0.44605124672                   1
 s    1 1.00
          0.1684885619                   1
 p    5 1.00
          307.66790569  -0.0088797025588865
          72.102015515  -0.064284071721237
          22.532680262   -0.24288739736006
          7.8991765444   -0.48340836369878
          2.8767268321   -0.38952563875509
 p    1 1.00
         0.77459363955                   1
 p    1 1.00
         0.21037699698                   1
 d    1 1.00
                  0.65                   1

5 0
 s    5 1.00
          10449.827566  0.0054265953789407
          1571.7365221   0.040626378128836
          357.12065523    0.18359747852877
          100.25185935    0.47438948768198
          30.812727554    0.43735181104122
 s    3 1.00
          51.923789434  -0.092754154848099
          5.7045760975    0.56380825544207
          2.3508376809    0.50367044629712
 s    1 1.00
         0.44605124672                   1
 s    1 1.00
          0.1684885619                   1
 p    5 1.00
          307.66790569  -0.0088797025588865
          72.102015515  -0.064284071721237
          22.532680262   -0.24288739736006
          7.8991765444   -0.48340836369878
          2.8767268321   -0.38952563875509
 p    1 1.00
         0.77459363955                   1
 p    1 1.00
         0.21037699698                   1
 d    1 1.00
                  0.65                   1

6 0
 s    5 1.00
          10449.827566  0.0054265953789407
          1571.7365221   0.040626378128836
          357.12065523    0.18359747852877
          100.25185935    0.47438948768198
          30.812727554    0.43735181104122
 s    3 1.00
          51.923789434  -0.092754154848099
          5.7045760975    0.56380825544207
          2.3508376809    0.50367044629712
 s    1 1.00
         0.44605124672                   1
 s    1 1.00
          0.1684885619                   1
 p    5 1.00
          307.66790569  -0.0088797025588865
          72.102015515  -0.064284071721237
          22.532680262   -0.24288739736006
          7.8991765444   -0.48340836369878
          2.8767268321   -0.38952563875509
 p    1 1.00
         0.77459363955                   1
 p    1 1.00
         0.21037699698                   1
 d    1 1.00
                  0.65                   1

7 0
 s    5 1.00
          10449.827566  0.0054265953789407
          1571.7365221   0.040626378128836
          357.12065523    0.18359747852877
          100.25185935    0.47438948768198
          30.812727554    0.43735181104122
 s    3 1.00
          51.923789434  -0.092754154848099
          5.7045760975    0.56380825544207
          2.3508376809    0.50367044629712
 s    1 1.00
         0.44605124672                   1
 s    1 1.00
          0.1684885619                   1
 p    5 1.00
          307.66790569  -0.0088797025588865
          72.102015515  -0.064284071721237
          22.532680262   -0.24288739736006
          7.8991765444   -0.48340836369878
          2.8767268321   -0.38952563875509
 p    1 1.00
         0.77459363955                   1
 p    1 1.00
         0.21037699698                   1
 d    1 1.00
                  0.65                   1

8 0
 s    5 1.00
          10449.827566  0.0054265953789407
          1571.7365221   0.040626378128836
          357.12065523    0.18359747852877
          100.25185935    0.47438948768198
          30.812727554    0.43735181104122
 s    3 1.00
          51.923789434  -0.092754154848099
          5.7045760975    0.56380825544207
          2.3508376809    0.50367044629712
 s    1 1.00
         0.44605124672                   1
 s    1 1.00
          0.1684885619                   1
 p    5 1.00
          307.66790569  -0.0088797025588865
          72.102015515  -0.064284071721237
          22.532680262   -0.24288739736006
          7.8991765444   -0.48340836369878
          2.8767268321   -0.38952563875509
 p    1 1.00
         0.77459363955                   1
 p    1 1.00
         0.21037699698                   1
 d    1 1.00
                  0.65                   1

9 0
 s    5 1.00
          10449.827566  0.0054265953789407
          1571.7365221   0.040626378128836
          357.12065523    0.18359747852877
          100.25185935    0.47438948768198
          30.812727554    0.43735181104122
 s    3 1.00
          51.923789434  -0.092754154848099
          5.7045760975    0.56380825544207
          2.3508376809    0.50367044629712
 s    1 1.00
         0.44605124672                   1
 s    1 1.00
          0.1684885619                   1
 p    5 1.00
          307.66790569  -0.0088797025588865
          72.102015515  -0.064284071721237
          22.532680262   -0.24288739736006
          7.8991765444   -0.48340836369878
          2.8767268321   -0.38952563875509
 p    1 1.00
         0.77459363955                   1
 p    1 1.00
         0.21037699698                   1
 d    1 1.00
                  0.65                   1

[5d]
[7f]
[9g]

[MO]
 Sym= A
 Ene=               0
 Spin= Alpha
 Occup=    1.00000
   1    6.0122530928705e-06
   2    -4.0959537821398e-05
   3    -4.1698047640937e-05
   4    0.0022624200722613
   5    0.00063108500962885
   6    0.00024578122897966
   7    0.00020590941212513
   8    -5.8955103888326e-05
   9    -0.00095570378105464
  10    -0.00018285323294941
  11    0.00029533865872447
  12    0.0088817374189954
  13    -0.012974938143716
  14    -0.0054191082258705
  15    -0.0014446930753042
  16    0.00056907978746317
  17    -0.0029943035960781
  18    -0.00091877785176994
  19       1.0624734262787
  20    0.0078048423402228
  21    -0.0045587643699974
  22    0.0022944696861181
  23    0.0070143309302385
  24     -0.25413391170405
  25    -4.009289681487e-06
  26    0.00051626040608832
  27    -0.00032066567019779
  28    -0.00031172421509607
  29    0.0015136481957293
  30    0.00040385852823645
  31    0.0015393230497794
  32    -4.0800887629686e-05
  33    0.00010999942827507
  34    -0.00060377654041288
  35    0.0018296189525589
  36    -0.00037544023745972
  37    5.5817174805499e-05
  38    0.00097600005475457
  39    2.1250476993248e-05
  40    -0.00019136699035549
  41    -0.0031717050146062
  42    -0.00010125778954597
  43    0.00050343812776844
  44     0.017816384022822
  45    0.0017202410407788
  46    -0.00042161550324261
  47    -2.8573313293393e-05
  48    -0.00061828751637545
  49    -0.00020488846302487
  50    0.0033847706161593
  51    -0.0014233659514213
  52    1.079136045461e-05
  53    -0.0080741899073101
  54    -0.001158112706789
  55     0.029230636112864
  56    -1.6411461859132e-05
  57    3.5714646389342e-06
  58    -0.00019031414584093
  59    -2.745442199193e-05
  60    -0.00060000349331066
  61    -9.0841500799391e-06
  62    0.0012731766375733
  63    -2.5351964524078e-05
  64    -0.00044494222470705
  65    0.0024579153223751
  66    0.00026789555680942
  67      0.13325519596799
  68    0.0039105219395488
  69    -0.00012597563252313
  70     -0.04635365061286
  71    -0.00043732239459762
  72    -0.00013077843349383
  73    0.00023556007254879
  74    -0.006973423811224
  75    -2.8924186647699e-05
  76    -0.014716992078062
  77    -4.8323262114387e-06
  78    0.00012917969886596
  79    0.0010561003893737
  80    -0.0047594377630721
  81    4.800248527531e-05
  82    -0.00030887261442078
  83    -0.00019900579860432
  84       0.0028373708185
  85    -0.0010695400843073
  86    -0.00090191469664516
  87     -0.01284213501428
  88    -2.1196775751327e-05
  89    0.0055099334109711
  90    -0.0035777237840468
  91     0.007682609864359
  92     0.001377264791193
  93    0.00061481377371833
  94    -0.0022461988959342
  95    -0.00014143695301093
  96    0.0015435799252545
  97     0.004710059824377
  98    -0.026610246332095
  99    0.00036492301393232
 100    -0.00068459865568066
 101    -0.0004891388446082
 102    0.0017641778885118
 103    -0.0028110668419236
 104    0.00070473633556299
 105    0.0082826482255852
 106    -0.0032984370235129
 107    -0.024620563374992
 108     -0.01078369542748
 109      0.01045910534999
 110    -0.0052682663375316
 111    -0.0025092216500539
 112    0.0028191030752929
 113    0.00011225780141857
 114    -0.0013100183534822
 115    -0.0054124006245485
 116     0.023852894857391
 117    8.4939484020891e-06
 118    -0.00057378035474349
 119    0.00022336178863883
 120    -0.0030511642862794
 121    0.00049906882452853
 122    -0.00045097444239906
 123     0.008372176749278
 124     -0.02509229710193
 125    0.0095254818154081
 126    -0.0045078020426691
 127    0.00029442159094142
 128    -0.0087353231541953
 129    -0.015057165513752
 130    -0.0010162948251999
 131    1.3179269438032e-05
 132    -0.00010555143422631
 133    0.00075312472091687
 134    -0.0033580567449984
 135    -0.00045143615398209
 136    -0.00016070324100778
 137    1.0478623833398e-05
 138    -0.0007626363137104
 139    -0.00013364884944879
 140    -0.00036278331743003
 141    -0.0017234818857501
 142    -0.00098889947606414
 143    0.0026947417590851
 144    -0.00036125178048064
 145    0.0003286128879839
 146    0.00018784250901209
 147    -8.7291348002886e-05
 148    0.0001451984927784
 149    1.7536516185685e-05
 150    -0.00011126363270118
 151    0.00014345662851882
 152    -0.0012490175644271
 153    -0.00033641902191937
 154    -8.2322385567544e-05
 155    0.00022703002075672
 156    -0.00058811010444036
 157    0.00014662905911992
 158    0.00061196343103094
 159    -0.0014963184498662
 160    -0.0018184753101145
 161    -0.00051389892597464
 162    3.2435542603091e-05
 163    -0.00021005041266792
 164    -0.00039761291576306
 165    -0.00032503759546967
 166    -0.00022353585629587
 167    1.4902964683116e-05
 168    -0.00017023338271624
 169    0.00062659182578615
 170     0.002772692265905
 171    0.0009717333885265
 172    -0.00012552890772582
 173    -0.00028931831797757
 174    0.0021654591790917
 175    -5.6124771899452e-05
 176    -0.00067458318120407
 177    0.0021851439712984
 178    0.00073579227232167
 179    0.00024417147726582
 180    3.7924711031309e-05
 181    0.00025129174513776
 182    -7.4863457532862e-05
 183    -3.2271909297976e-05
 184    0.0004257272530201
 Sym= A
 Ene=               1
 Spin= Alpha
 Occup=    1.00000
   1    -0.00026205226010273
   2    0.0005946514663424
   3    -0.0047332539119291
   4     0.017353619000283
   5    0.0031664887231106
   6    -0.00053967626689777
   7    0.00059553167696745
   8    0.0010531430619492
   9    0.0019683723128701
  10    -0.0021712714704949
  11    -0.0042286372200745
  12    -0.0088312178801128
  13     0.015422322616545
  14     0.047253487574524
  15    -0.00028153344150861
  16    -0.0020857187242545
  17       1.0703627880599
  18    0.0016719467707397
  19    -0.002742186285531
  20    0.0055089526949307
  21     0.010643396331842
  22     -0.24899009084518
  23    -0.011357961614708
  24    0.0025886405294047
  25    0.00041750462605207
  26    -0.0002607840679805
  27    -0.00087939681094409
  28    -0.00022022339982656
  29    -0.00082928005065184
  30    -0.00024891331451369
  31    0.00068593780821311
  32    5.1578284263961e-05
  33    -0.00015166613153012
  34    0.00078637535765676
  35    -0.00036761078453395
  36    0.00010720321477479
  37    -0.00023836011551425
  38    0.00041166160809848
  39    7.624653297563e-05
  40    0.00085745402715272
  41    -0.0013925887489037
  42    -0.00025736731330878
  43    -0.0017639976583142
  44    0.0076199327504295
  45    -4.7674031329945e-05
  46    -2.8515977515123e-05
  47    -0.00034311517236103
  48    -0.00010612653165833
  49    -5.1681766184226e-05
  50    0.00064185175881164
  51    0.0017289755763892
  52    -0.0031369966940573
  53    -0.0016048386433229
  54    -0.0012511233316975
  55    0.0077171796043488
  56    3.2976506327417e-05
  57    -6.124016365725e-05
  58    -3.1110681857272e-05
  59    -5.2818909801064e-05
  60    -0.00017986322776634
  61    8.9360621053878e-06
  62    0.00038754632180015
  63    7.917398409071e-05
  64    0.00064120151199652
  65    -0.00024571212356301
  66    -0.0065056285414124
  67     0.029773596842309
  68    -0.014987191422828
  69    0.0065999265950301
  70    -0.011651012443973
  71    0.0033190009823909
  72    -0.00013116450685476
  73    -0.0001535149428264
  74      0.00194930539517
  75    0.00047785055853057
  76    -0.0063837794337522
  77    -0.00028052007523793
  78    0.0029460633050946
  79    0.0072272421634452
  80    -0.047925254009357
  81    -4.4461192217694e-06
  82    -0.0010713492393245
  83     0.001381364175748
  84    -0.00065540995043499
  85    -0.0035727424970204
  86    0.0019858947207473
  87    0.0065615934725184
  88    -0.014584647742449
  89     0.038684784743455
  90    -0.019230842547017
  91    -0.0047105692465962
  92     0.014530134149087
  93     0.001068436423953
  94     0.001832201756888
  95    0.00022788032885905
  96    -0.0023655711290197
  97    -0.0046673609044655
  98       0.0357089857542
  99    -0.00050822075316088
 100    0.00070947775327623
 101    0.0010797380321448
 102    0.00093963257740675
 103    0.0030630101138656
 104    0.0028186355967288
 105    -0.028013471827328
 106    0.0064995271079858
 107     0.019725636277891
 108    0.0026179489868488
 109    -0.016009628693466
 110    0.0059390645993559
 111    0.0088607547884528
 112    -0.0062853735138208
 113    -0.00015202712284365
 114    0.0015112678652421
 115    0.0038063424804713
 116    -0.021237911342187
 117    0.00045430678606531
 118    0.00070779785700381
 119    -0.00059417379270347
 120    -0.000102240990219
 121    0.00033299381802241
 122    -0.0040891123422119
 123     0.010483347993255
 124     0.019691657646192
 125    0.0069781605716018
 126    0.0092741145168048
 127    -0.0011172440560893
 128    -0.0033791675227289
 129    0.0083835379628925
 130    -0.0087772533628216
 131    -9.5024882476744e-06
 132    5.0277780121551e-06
 133    0.0012301164519965
 134    -0.0034408899605648
 135    -9.5115488453639e-06
 136    5.5254626761112e-05
 137    0.00010918390981224
 138    0.00039323977731287
 139    0.00016585266926498
 140    -0.0001255443368953
 141    -0.0015906338949633
 142    6.4450618769639e-05
 143    0.0023149896321791
 144    -0.00019363428846725
 145    0.00010935038806576
 146    -7.5875838803273e-06
 147    -0.00020546837262893
 148    2.7635250165324e-05
 149    3.110914576501e-05
 150    -0.00021773177147723
 151    0.0006846762039129
 152    -0.0014571865433938
 153    -3.1551674481068e-05
 154    -0.0001086114504108
 155    0.00016488956826675
 156    2.3534424299761e-05
 157    -0.00011811955846038
 158    0.00047064529663291
 159    -0.00071970931828357
 160    -0.00068021525934828
 161    -0.00052596701463691
 162    -2.6025986238798e-05
 163    -0.00014853983501107
 164    -0.0001157899115615
 165    -0.00016532831878106
 166    -4.7400198096903e-05
 167    2.4369887076255e-05
 168    -0.00017766138629517
 169    0.00014668654928408
 170    0.0017053311259088
 171    0.0003136314892654
 172    5.3911479185594e-05
 173    -8.4336807952231e-05
 174    0.00059715650083824
 175    2.676239918724e-05
 176    -0.00026689577485101
 177     0.001210394574762
 178    0.0012187731161855
 179    0.00048853320657615
 180    -1.7678714124699e-05
 181    0.00015379636440943
 182    0.00010081055442541
 183    -7.6495403917646e-05
 184    0.00025108377429282
 Sym= A
 Ene=               2
 Spin= Alpha
 Occup=    1.00000
   1    -0.00080406428895672
   2    0.0023230174753417
   3    -0.010309042639738
   4     0.015959799861624
   5    -0.0063190197247691
   6    -0.0031010475783531
   7     0.001064520242163
   8    -0.00073683026240759
   9     0.010236189542505
  10    -0.004176436299241
  11    0.0027742087487828
  12    -0.037346859570602
  13     0.041177445047408
  14    -0.022062081555684
  15       1.0665334913479
  16    -0.00078079052732177
  17    -0.00077304326318462
  18    0.0038606273669542
  19    -0.0012129655113781
  20     -0.25194031822996
  21    0.00087184784988166
  22    0.0053590801609356
  23     0.014541451836014
  24    0.0083362343566401
  25    0.00018352010203887
  26    0.0007211739213641
  27    0.00092518704970581
  28    0.0001078575751483
  29    -0.00019788124506095
  30    -0.0020153243034666
  31    -0.00022852492616975
  32    0.00059559973006949
  33    -0.0017781700767095
  34    0.0081273318622887
  35    -0.00043185926648631
  36    -0.006778265180079
  37    -0.0020667105800548
  38    -2.026103577817e-05
  39    0.0015864003198682
  40    0.0069537498608859
  41    4.3396160916769e-05
  42    -0.0051615679566963
  43    0.00070082685485224
  44    0.00090433276844671
  45     0.010857751847448
  46    -0.0003494399690729
  47    0.0027248300710551
  48    7.8417113157323e-05
  49    -0.00070697200648313
  50    -0.00044471291675504
  51    -0.0096594644769207
  52     0.010062655906885
  53    -0.0014055184195851
  54    0.0091052870033615
  55    -0.0018895537656324
  56    -0.00045364231249241
  57    -0.00057813171798923
  58    -2.98722621895e-05
  59    0.00070018249554718
  60    -6.062858433097e-05
  61    1.2493611379986e-05
  62    5.9995836157887e-05
  63    -0.0015395085510663
  64    -0.0029668340188287
  65    -0.041378942673145
  66     0.015119319860202
  67    -0.0095795634251208
  68      0.06977267031626
  69     0.023836572882962
  70    -0.00078489879229047
  71    -0.013636923764247
  72    -5.3561861651321e-05
  73    -0.0094843992972684
  74    -0.00021212755201607
  75    0.00018795023463846
  76    -0.00046989541076853
  77    0.0001177817600379
  78    -0.0016566557384617
  79    -0.0081475480731783
  80     0.042197162291143
  81    0.00062902207287244
  82    -0.00013113456695619
  83    -0.00057004490056603
  84    0.00097508054701973
  85    -0.0027832482979728
  86    -0.0027739506184465
  87    0.00031917686232269
  88     0.027913242962793
  89    -0.022469376793665
  90    0.0050177120997722
  91    0.0027038969489944
  92    -0.020287162570833
  93    -0.0090160684594614
  94    -0.0028284324900503
  95    9.4805097040701e-06
  96    -0.00035186965427987
  97    -0.0042266749773773
  98     0.018464318247457
  99    0.00029368741209308
 100    -7.229878568593e-05
 101    0.00013068303979952
 102    0.0023156186957966
 103    -0.0013209126942445
 104    0.0024346934762732
 105    -0.014953884157949
 106     0.010471334648449
 107    -0.00034345339145253
 108    -0.0079950649712211
 109    -0.0050375204709439
 110    0.0028848435436828
 111    0.0029340132107681
 112    -0.009617610569971
 113    -0.00020563849891693
 114    0.0018537562899583
 115    0.0046929225263319
 116    -0.029345987655736
 117    0.00056454083230642
 118    0.0012321639304573
 119    -0.0003435578674315
 120    -0.00014826043756924
 121    0.0018202901327091
 122    0.0011794786740903
 123      0.01374244463893
 124     0.022335778634425
 125    -0.013823894519303
 126    0.0040141071500352
 127    0.0037995098613245
 128    0.0099395280582107
 129    0.0056398966657883
 130    -0.0058030576743833
 131    2.5709850182919e-05
 132    -0.00014237284972602
 133    -0.00054055621866506
 134    0.00095579915446685
 135    -0.00025152861128413
 136    -7.325812480814e-05
 137    -0.00023360733558509
 138    -0.00023343665554208
 139    -0.00020366255982467
 140    -0.00034483908010157
 141    -0.0015445303071612
 142    0.00039998409675666
 143    -0.00059406080435846
 144    0.00014891740202795
 145    0.00025631708329453
 146    0.00010114519693762
 147    -2.9524903591971e-05
 148    0.00015423002832663
 149    6.7099140553163e-05
 150    -0.00039840563170319
 151    -0.00060031254180958
 152    0.0053452639170018
 153    0.0012311459643147
 154    -0.00017670151314508
 155    -0.00012819712298455
 156     0.001967681768109
 157    -0.0001951160768324
 158    -0.0002592551513185
 159    0.0048549557497508
 160    -0.0014431153916685
 161    -1.3189629387801e-05
 162    -0.00022947863420902
 163    1.2508010161095e-05
 164    9.3805634923037e-05
 165    -8.7438940478285e-05
 166    -9.4908829825635e-05
 167    0.00010695687077748
 168    -0.0006512977440122
 169    -0.00064723274686377
 170    0.0057720786264522
 171    0.00072872788632442
 172    0.00068171195114606
 173    -0.00022229962557618
 174    0.0010648335230581
 175    0.0009580846639024
 176    -0.00033145185780847
 177    0.0032215923531633
 178    0.0039659249171725
 179    -0.0009218286595493
 180    -0.00015340965460263
 181    3.8483904210023e-05
 182    -7.7596417394498e-05
 183    -0.00029358582074693
 184    5.1102964737181e-05
 Sym= A
 Ene=               3
 Spin= Alpha
 Occup=    1.00000
   1    0.0008933439658764
   2    -0.0025879900734968
   3     0.011429312960919
   4     -0.01582079583749
   5    0.0049484197873343
   6    0.0041023105928074
   7    -0.00010105839323717
   8    0.00073820028792561
   9    -0.014074311998679
  10    0.00044900070935773
  11    -0.0020087164162263
  12     0.066004656885452
  13    -0.0065487562314095
  14    -0.0062477811319318
  15    -0.0015386663244822
  16        1.065519596901
  17    -0.0018543160154866
  18    0.00050234891935558
  19    0.0005306628584546
  20    0.0018400335510976
  21      -0.2640744258663
  22     0.010221825145074
  23    -0.015094563754639
  24    -0.0044685973567198
  25    -0.0012811359117286
  26    0.0006468181378847
  27    -0.00038597766315352
  28    0.0021914991260417
  29    0.00087554639143498
  30    0.0013985578822605
  31    -0.00041826690430197
  32    -0.00087815678755216
  33    0.0025044776322569
  34    -0.010886261610884
  35     0.030128358352896
  36    -0.005463157582908
  37    0.0024154493984343
  38    2.7429703366423e-05
  39    -0.00070625179574425
  40     -0.00709197719682
  41    -8.3321616924675e-05
  42    0.0020193198062398
  43      0.02386885607323
  44    0.00015841904270404
  45    0.00071593591298771
  46    -0.0040637784627734
  47    -0.0025682580131299
  48    -0.0002529054235655
  49    0.0074796872750704
  50    7.8198222471076e-05
  51    -0.014539216072939
  52    0.0056180729063883
  53    -0.0022329897165191
  54     0.017254222705352
  55    6.5232297977502e-05
  56    7.6534833799285e-05
  57    -0.00061684943718347
  58    -1.9645543653034e-05
  59    -8.7329495311873e-05
  60    9.3898371708638e-06
  61    0.00071587354015709
  62    -1.2063741093602e-05
  63    0.0013781900161329
  64    0.0080835433652236
  65     0.030612376202992
  66    -0.053671391556699
  67     0.002744239367381
  68     0.096426206300471
  69    0.0042246205000346
  70    0.00015283126986042
  71    -0.049985683345952
  72    -0.011845101400646
  73      -0.0078107981058
  74    -0.00013040592568331
  75    0.0094944379630179
  76    0.00022070957457504
  77    0.00017987005860638
  78    -0.0014224434445006
  79    0.0010136794103096
  80     0.006003840722492
  81    -0.0004489494646341
  82    0.00056506742968715
  83    -0.0011635299731531
  84    -0.0037053478190752
  85    0.00060110548704835
  86    -0.0022579265649284
  87     0.010603383453757
  88    0.0066370700339152
  89    -0.0073127950696742
  90    0.0026656985935797
  91    -0.0088534274448781
  92    -0.0042744267447037
  93    -0.0026209581819728
  94    0.0063231438697195
  95    -0.00020516015773814
  96    0.0024574162895138
  97    0.0064191709048523
  98    -0.043743659252691
  99    0.00014828861475849
 100    -0.00036174745492707
 101    -0.00089221456482053
 102    0.0029534323117388
 103    0.00071753699531015
 104    -0.0015732415303947
 105    0.0083542510218865
 106    -0.025377123652747
 107    -0.029767037853268
 108    -0.0056019719510985
 109     0.013117246055975
 110    -0.016483024973819
 111    0.0039735213790022
 112     0.010522982234994
 113    5.2160845037103e-05
 114    -0.00011510203495349
 115     0.001789913441719
 116    -0.0075296500000914
 117    -0.00047563425122886
 118    -0.00066112331676005
 119    -0.00014325574645448
 120    0.0012941629865395
 121    -0.0020342654650264
 122    -0.0012784050996728
 123    -0.010745953847236
 124    0.0094746723642956
 125    0.0028405740551768
 126    0.0038023222668346
 127    -0.00039470901269059
 128    -0.0011687917822491
 129    0.0074057888628368
 130    0.0018067029762096
 131    2.1880634713651e-06
 132    4.1886339860197e-05
 133    -0.00065438883953409
 134    -0.00098090862619693
 135    -0.00037058197545756
 136    7.5400123967129e-05
 137    0.00032317612459773
 138    -0.00069100289912227
 139    0.00013597055963618
 140    0.00067466079030789
 141    -0.0022726275640812
 142    0.00025244822262804
 143    0.00068377614833234
 144    0.00029437107116439
 145    0.00052316284405924
 146    0.00047246987716878
 147    1.5391106077773e-05
 148    0.00036522856419499
 149    -0.00015858039244772
 150    0.0010831554098484
 151    -0.0018460664057886
 152    -0.00012203354883113
 153    -0.00082108409939101
 154    0.00051401723436019
 155    -0.00081468854483539
 156    -0.0012170723412044
 157    0.0010560988425293
 158    -0.0016076002284786
 159    -0.0035723088222569
 160    0.0005926649449053
 161    -0.0013204084622932
 162    -7.6726284133552e-05
 163    3.1636178965567e-06
 164    -9.8012508330191e-05
 165    7.5600433825877e-05
 166    -0.00014887037025693
 167    -9.1882638762554e-05
 168    0.00064552363116506
 169    -0.0011669800065563
 170    -0.0010152658401925
 171    -0.00051333239436331
 172    -0.00078636147164695
 173    -0.00015071713392202
 174    -0.00065033495113139
 175    -0.0015544526163057