[Molden Format]
made by pyscf v[2.0.1]
[Atoms] (AU)
Fe   1   26     3.17068844873907     0.00098706064664     0.12237737881307
Fe   2   26    -3.17068844873907    -0.00098706064664     0.12237737881307
O   3   8     0.00000000000000     0.00000000000000    -0.89004350580623
Cl   4   17     3.53383895113107    -2.07485195383062     3.76228752659000
Cl   5   17     5.54152580550813    -1.85590924879884    -2.78672786652360
Cl   6   17     4.48169216485503     3.92976278472880    -0.95330240907949
Cl   7   17    -3.53383895113107     2.07485195383062     3.76228752659000
Cl   8   17    -5.54152580550813     1.85590924879884    -2.78672786652360
Cl   9   17    -4.48169216485503    -3.92976278472880    -0.95330240907949
[GTO]
1 0
 s    6 1.00
          60923.640643  0.0017552243692958
          9147.8893982   0.013449023284001
          2081.3505927   0.066678874640978
          587.55977067    0.23176348548844
           191.0904399    0.46945550248188
          65.732730112     0.3596824938678
 s    3 1.00
          127.25891928   -0.10723431835929
           14.83091301    0.62971616328466
          6.0653307408    0.44472317896179
 s    3 1.00
           10.44994371   -0.21694289195548
          1.7245228003    0.69457867408393
         0.71772177325    0.43298308896347
 s    1 1.00
        0.091449828308                   1
 s    1 1.00
        0.033706691021                   1
 p    5 1.00
          773.43750995  0.0091440529992506
          182.15149714   0.067887577136571
          57.547272758    0.26167978878504
          20.614988935    0.51088040113251
           7.634855789    0.33235475570224
 p    3 1.00
           3.871932799    0.33193859098144
          1.4924724132     0.5553666555499
         0.56061284958    0.23106034201617
 p    1 1.00
              0.134915                   1
 d    4 1.00
          38.968133419   0.033335938558743
          10.800067078    0.17766212505983
          3.6136457999      0.441281781625
          1.2129967888    0.57089200490673
 d    1 1.00
          0.3652439317                   1
 f    1 1.00
                 1.598                   1

2 0
 s    6 1.00
          60923.640643  0.0017552243692958
          9147.8893982   0.013449023284001
          2081.3505927   0.066678874640978
          587.55977067    0.23176348548844
           191.0904399    0.46945550248188
          65.732730112     0.3596824938678
 s    3 1.00
          127.25891928   -0.10723431835929
           14.83091301    0.62971616328466
          6.0653307408    0.44472317896179
 s    3 1.00
           10.44994371   -0.21694289195548
          1.7245228003    0.69457867408393
         0.71772177325    0.43298308896347
 s    1 1.00
        0.091449828308                   1
 s    1 1.00
        0.033706691021                   1
 p    5 1.00
          773.43750995  0.0091440529992506
          182.15149714   0.067887577136571
          57.547272758    0.26167978878504
          20.614988935    0.51088040113251
           7.634855789    0.33235475570224
 p    3 1.00
           3.871932799    0.33193859098144
          1.4924724132     0.5553666555499
         0.56061284958    0.23106034201617
 p    1 1.00
              0.134915                   1
 d    4 1.00
          38.968133419   0.033335938558743
          10.800067078    0.17766212505983
          3.6136457999      0.441281781625
          1.2129967888    0.57089200490673
 d    1 1.00
          0.3652439317                   1
 f    1 1.00
                 1.598                   1

3 0
 s    5 1.00
          2266.1767785  -0.0053893503921743
          340.87010191   -0.04023472138896
          77.363135167   -0.18008184205526
           21.47964494   -0.46828857657651
          6.6589433124   -0.44692617160187
 s    1 1.00
         0.80975975668                   1
 s    1 1.00
         0.25530772234                   1
 p    3 1.00
          17.721504317   0.062630248763161
           3.863550544    0.33331138482352
          1.0480920883    0.74148638308122
 p    1 1.00
         0.27641544411                   1
 d    1 1.00
                   1.2                   1

4 0
 s    5 1.00
          10449.827566  0.0054265953789407
          1571.7365221   0.040626378128836
          357.12065523    0.18359747852877
          100.25185935    0.47438948768198
          30.812727554    0.43735181104122
 s    3 1.00
          51.923789434  -0.092754154848099
          5.7045760975    0.56380825544207
          2.3508376809    0.50367044629712
 s    1 1.00
         0.44605124672                   1
 s    1 1.00
          0.1684885619                   1
 p    5 1.00
          307.66790569  -0.0088797025588865
          72.102015515  -0.064284071721237
          22.532680262   -0.24288739736006
          7.8991765444   -0.48340836369878
          2.8767268321   -0.38952563875509
 p    1 1.00
         0.77459363955                   1
 p    1 1.00
         0.21037699698                   1
 d    1 1.00
                  0.65                   1

5 0
 s    5 1.00
          10449.827566  0.0054265953789407
          1571.7365221   0.040626378128836
          357.12065523    0.18359747852877
          100.25185935    0.47438948768198
          30.812727554    0.43735181104122
 s    3 1.00
          51.923789434  -0.092754154848099
          5.7045760975    0.56380825544207
          2.3508376809    0.50367044629712
 s    1 1.00
         0.44605124672                   1
 s    1 1.00
          0.1684885619                   1
 p    5 1.00
          307.66790569  -0.0088797025588865
          72.102015515  -0.064284071721237
          22.532680262   -0.24288739736006
          7.8991765444   -0.48340836369878
          2.8767268321   -0.38952563875509
 p    1 1.00
         0.77459363955                   1
 p    1 1.00
         0.21037699698                   1
 d    1 1.00
                  0.65                   1

6 0
 s    5 1.00
          10449.827566  0.0054265953789407
          1571.7365221   0.040626378128836
          357.12065523    0.18359747852877
          100.25185935    0.47438948768198
          30.812727554    0.43735181104122
 s    3 1.00
          51.923789434  -0.092754154848099
          5.7045760975    0.56380825544207
          2.3508376809    0.50367044629712
 s    1 1.00
         0.44605124672                   1
 s    1 1.00
          0.1684885619                   1
 p    5 1.00
          307.66790569  -0.0088797025588865
          72.102015515  -0.064284071721237
          22.532680262   -0.24288739736006
          7.8991765444   -0.48340836369878
          2.8767268321   -0.38952563875509
 p    1 1.00
         0.77459363955                   1
 p    1 1.00
         0.21037699698                   1
 d    1 1.00
                  0.65                   1

7 0
 s    5 1.00
          10449.827566  0.0054265953789407
          1571.7365221   0.040626378128836
          357.12065523    0.18359747852877
          100.25185935    0.47438948768198
          30.812727554    0.43735181104122
 s    3 1.00
          51.923789434  -0.092754154848099
          5.7045760975    0.56380825544207
          2.3508376809    0.50367044629712
 s    1 1.00
         0.44605124672                   1
 s    1 1.00
          0.1684885619                   1
 p    5 1.00
          307.66790569  -0.0088797025588865
          72.102015515  -0.064284071721237
          22.532680262   -0.24288739736006
          7.8991765444   -0.48340836369878
          2.8767268321   -0.38952563875509
 p    1 1.00
         0.77459363955                   1
 p    1 1.00
         0.21037699698                   1
 d    1 1.00
                  0.65                   1

8 0
 s    5 1.00
          10449.827566  0.0054265953789407
          1571.7365221   0.040626378128836
          357.12065523    0.18359747852877
          100.25185935    0.47438948768198
          30.812727554    0.43735181104122
 s    3 1.00
          51.923789434  -0.092754154848099
          5.7045760975    0.56380825544207
          2.3508376809    0.50367044629712
 s    1 1.00
         0.44605124672                   1
 s    1 1.00
          0.1684885619                   1
 p    5 1.00
          307.66790569  -0.0088797025588865
          72.102015515  -0.064284071721237
          22.532680262   -0.24288739736006
          7.8991765444   -0.48340836369878
          2.8767268321   -0.38952563875509
 p    1 1.00
         0.77459363955                   1
 p    1 1.00
         0.21037699698                   1
 d    1 1.00
                  0.65                   1

9 0
 s    5 1.00
          10449.827566  0.0054265953789407
          1571.7365221   0.040626378128836
          357.12065523    0.18359747852877
          100.25185935    0.47438948768198
          30.812727554    0.43735181104122
 s    3 1.00
          51.923789434  -0.092754154848099
          5.7045760975    0.56380825544207
          2.3508376809    0.50367044629712
 s    1 1.00
         0.44605124672                   1
 s    1 1.00
          0.1684885619                   1
 p    5 1.00
          307.66790569  -0.0088797025588865
          72.102015515  -0.064284071721237
          22.532680262   -0.24288739736006
          7.8991765444   -0.48340836369878
          2.8767268321   -0.38952563875509
 p    1 1.00
         0.77459363955                   1
 p    1 1.00
         0.21037699698                   1
 d    1 1.00
                  0.65                   1

[5d]
[7f]
[9g]

[MO]
 Sym= A
 Ene=               0
 Spin= Alpha
 Occup=    1.00000
   1    -2.8514915720978e-05
   2    5.6242791839167e-05
   3    -0.00054185572392647
   4    0.0028976861576615
   5    0.00090263649856547
   6    0.00016963328820586
   7    -0.00059441481851799
   8    -8.048527873091e-05
   9    -0.00069270001249323
  10    0.0023650205007435
  11    0.00034631627871623
  12    0.0089583184628798
  13    -0.023434485790776
  14    -0.0046430427983947
  15    -0.001678470307266
  16    0.00080418397928038
  17    -0.0013536185909802
  18    -0.0014136395617764
  19       1.0688542178071
  20    0.0074849014581748
  21    -0.0040264407723505
  22    0.0057898855214552
  23     0.006002973212566
  24     -0.23971607965007
  25    1.4626547574679e-06
  26    0.00051118415220591
  27    -0.000223150277814
  28    -0.00034102792278878
  29    0.0011910179733682
  30    0.00040687003980161
  31    0.00087257261375977
  32    -8.5224150190571e-06
  33    1.8601316536572e-05
  34    -0.00015446575740056
  35    0.00094095060110755
  36    -0.00045905445538351
  37    2.2226659424443e-05
  38    0.00013293938413164
  39    3.2276716676986e-05
  40    -8.0709023300294e-05
  41    -0.00049560878793446
  42    -0.00011510003572981
  43    0.00033477190248537
  44    0.0077929334558796
  45    0.00079555397834186
  46    -0.0001511655901291
  47    -6.0864812625531e-06
  48    0.00042863577536422
  49    -7.7927424246183e-05
  50    -0.0011129836189449
  51    0.00062254150467058
  52    -2.3721948832805e-05
  53    -0.0020338275715549
  54    0.00024374550840133
  55    0.0057499689481078
  56    1.2220118381452e-06
  57    1.000280613423e-05
  58    -8.6480386613279e-05
  59    -3.0413512697904e-05
  60    -0.00029899884257145
  61    -1.6853208974959e-05
  62    0.00063747309214576
  63    -2.9972135758139e-05
  64    -0.0005369440910148
  65    0.0027183211046608
  66    -6.4773782549266e-05
  67    0.0013529587257581
  68    -0.00017904157322438
  69    0.0011846558563788
  70    -0.031960524360208
  71    0.0012877029718339
  72    -9.9075272573741e-05
  73    0.0002195069881693
  74    -0.0068562542541789
  75    -4.7057006059038e-05
  76    -0.014967229312213
  77    -2.0722982974212e-05
  78    0.00022957302650248
  79    0.0012845518339096
  80    -0.0069628338837819
  81    0.00040480500597757
  82    -0.00020206563016877
  83    -2.1479610144009e-05
  84    0.0034970199457094
  85    -0.00097902822780234
  86    -0.00080127628460495
  87    -0.011819753482014
  88    0.00054738320055921
  89    0.0076415942230674
  90    -0.0038364930964919
  91    0.0076363429955706
  92    0.0013660374129438
  93    0.00058732172635668
  94    -0.0022015960918442
  95    -0.000141250288407
  96    0.0015441287331811
  97     0.004784970162931
  98    -0.027689365686762
  99    0.00068920119418508
 100    -0.00059837292489904
 101    -0.00040059979448644
 102    0.0023509911880561
 103    -0.0028019239540594
 104    0.0010127668767056
 105    0.0094391381778481
 106    -0.0022813894957651
 107    -0.025218967712572
 108    -0.010888983335732
 109     0.010584698138296
 110    -0.0051143112367108
 111    -0.0026165748790139
 112    0.0027267761135897
 113    0.00014863476235787
 114    -0.0015880115774857
 115    -0.0048728705502723
 116     0.025759642345459
 117    -0.00073288940626909
 118    -0.00062179650182255
 119    9.8472089713288e-05
 120    -0.0045851923878437
 121    0.00038723819558891
 122    -0.00079193326613263
 123    0.0065492182505368
 124    -0.026164048341161
 125    0.0099295927034675
 126    -0.0044677905980354
 127    0.00015873457291332
 128    -0.0088262467339675
 129    -0.015258301870901
 130    -0.00090936781319029
 131    1.0251415490589e-06
 132    -1.780263684632e-05
 133    0.00041566939226136
 134    -0.0018297509518588
 135    -1.2800089109763e-05
 136    1.7732911293782e-05
 137    -4.2605542592779e-05
 138    -1.2728098408854e-05
 139    0.00010573250515713
 140    -0.00026163023760701
 141    -0.00023586544113271
 142    -9.7312549377989e-05
 143    0.0014030101392392
 144    -0.00025068719436479
 145    0.00019934612128958
 146    6.5423187444534e-05
 147    -3.3092805588572e-05
 148    6.0100231636272e-05
 149    -2.0503431598933e-06
 150    1.9681356922537e-05
 151     3.44603036871e-05
 152    -0.00083220692692012
 153    -1.2746463232726e-05
 154    3.7230629500652e-05
 155    3.1272252305399e-05
 156    -3.2075846756611e-05
 157    0.00023429285437622
 158    0.00015398100773748
 159    -0.00046665684746256
 160    -0.00062446491994575
 161    -0.0007028261642415
 162    2.6248596605914e-05
 163    -0.00019699403698067
 164    -0.00018291473587626
 165    -0.00024408489846499
 166    -9.5675331843841e-05
 167    1.4455633641449e-05
 168    -0.00013401366797656
 169    0.00025762142373717
 170    0.0016516018501397
 171    0.00010217030030041
 172    3.877484982099e-05
 173    -2.7266859116997e-05
 174    0.00047504516096551
 175    0.00017764689989407
 176    -0.00014908165639925
 177    -0.00012623273947755
 178    0.00086611658830267
 179    0.00061554736403308
 180    -5.7782625674426e-05
 181    0.00015085192788634
 182    1.990175816186e-05
 183    -3.0004618470867e-05
 184    0.00034978737178698
 Sym= A
 Ene=               1
 Spin= Alpha
 Occup=    1.00000
   1    -0.00018706352404028
   2    0.00036854677822284
   3    -0.003690769941557
   4     0.018537150726159
   5    0.0030164182836213
   6    -0.00019745504830932
   7    0.00030403228715883
   8    0.0010846473751898
   9    0.00078632384072908
  10    -0.0012450637292768
  11    -0.0043643976508518
  12    -0.009319522439808
  13     0.012603861894796
  14     0.047515174626624
  15    -0.0010250761507458
  16    -0.0021905206091225
  17       1.0708295036712
  18    0.0025248756616045
  19     -0.00135361859098
  20    0.0043752219682524
  21    0.0096464917443451
  22     -0.24800364086646
  23     -0.01063020813275
  24    0.0057289800598112
  25    0.00037530033339715
  26    -0.0002420778663284
  27    -0.00086268571640354
  28    -0.00015563473655878
  29    -0.00090680915637157
  30    -0.00021930254534426
  31    0.00052456356142058
  32    4.4179995723806e-05
  33    -0.00012499427720326
  34    0.00071139936528414
  35    -0.0010367806869965
  36     -0.00011287641922
  37    -0.00018878754621354
  38    0.00012381643602704
  39    7.7646920628336e-06
  40    0.00068916502807439
  41    -0.00048336093347688
  42    -3.6971999060039e-05
  43    -0.0018323103800092
  44    0.0051154782116852
  45    0.0006397809251907
  46    -9.602588169245e-05
  47    -6.2786097303853e-05
  48    0.00018244123551404
  49    0.00011003363278933
  50    -0.00042863577536482
  51    0.0002011681480327
  52    0.00022568711604646
  53    -0.00083286340925947
  54    3.0453664929403e-05
  55    0.0021576274939386
  56    7.5170104636387e-06
  57    -0.00011366585613068
  58    -9.4705626904234e-06
  59    -1.6453201750564e-05
  60    -0.00010704807742398
  61    2.5731095272575e-05
  62    0.00023050123653463
  63    0.00016639252063503
  64    0.0012141411885854
  65    -0.0011245774518357
  66    0.00019749171234514
  67    0.0010974634397652
  68    0.0017154938036224
  69    0.0011477066348375
  70    -0.013925411555262
  71    -0.0066808527932016
  72    -0.00038104318220263
  73    -0.00017173013004286
  74    0.0018673172808459
  75    0.00055329439638863
  76    -0.0064342696019917
  77    -0.00026446484384436
  78    0.0028422556238013
  79    0.0074583033446786
  80    -0.048430830384774
  81    2.3724627784165e-05
  82    -0.00093482010131882
  83    0.0013317463643265
  84    -0.00060800437432165
  85    -0.0033482860342088
  86    0.0018511501700025
  87     0.006742315333217
  88    -0.014175062539574
  89     0.038951259763964
  90    -0.019289896168406
  91    -0.0048097211877397
  92     0.014543897828113
  93    0.0010665955410115
  94    0.0019108353902342
  95    0.00021509231795558
  96    -0.0022784592846605
  97    -0.0047504949335746
  98     0.035244318558332
  99    -0.00042843332407652
 100    0.00070853787271558
 101    0.0010317309882134
 102    0.0010689283427069
 103    0.0030214943196368
 104    0.0027637281373617
 105    -0.027592815695944
 106    0.0066480293475353
 107     0.019299721480184
 108    0.0025739908979509
 109    -0.015941401852275
 110    0.0059561275305146
 111     0.008833763600095
 112    -0.006288861505061
 113    -0.00011971499403372
 114    0.0012919874626452
 115    0.0041437392933836
 116    -0.020617206244208
 117    0.00011655039562135
 118    0.00058325017881731
 119    -0.00057465838386461
 120    -0.00074539486113936
 121    0.00012690976695604
 122    -0.0040804370346608
 123    0.0096226761756298
 124     0.019045625112082
 125    0.0071920750734658
 126    0.0092931262695172
 127    -0.0011153030993172
 128    -0.003394020844313
 129      0.00829624373284
 130    -0.008826399397127
 131    2.043091431972e-05
 132    -0.00019372587952368
 133    0.0014460565428313
 134    -0.0028336039330666
 135    0.00011645297143624
 136    9.308876757931e-06
 137    -6.9919148960851e-05
 138    0.00063662026096822
 139    5.2162882138203e-05
 140    -0.00041026541628689
 141    -0.0013225551611503
 142    6.8174389277785e-06
 143    0.0014495633213263
 144    -0.00012888690718378
 145    0.00015636673254059
 146    1.1574339483923e-05
 147    -0.00023136555056013
 148    5.0517942848785e-05
 149    1.7950386869495e-06
 150    -1.7350708486084e-05
 151    0.00034023327791228
 152    -0.0012037334787274
 153    2.4524634505912e-06
 154    1.4508701977622e-05
 155    3.321095763759e-05
 156    4.6863003922306e-05
 157    8.9410486788357e-05
 158    0.00021282834421159
 159    -0.00045905124210703
 160    -0.00017325608202625
 161    -0.00093205180559189
 162    -0.0001324530842455
 163    -0.00017825377331981
 164    -8.138192578943e-06
 165    -0.00011218392840315
 166    -5.5275384209044e-05
 167     2.78841183986e-06
 168    -2.4197566195514e-05
 169    -0.00025040378288972
 170    0.0016239216788818
 171    1.4938174465344e-05
 172    -1.1873907772251e-05
 173    -2.0567607097848e-05
 174    3.0015588807534e-05
 175    -0.00010902428942372
 176    -0.00012195130485728
 177    0.00048221999145381
 178    0.0010444066683024
 179    0.00047279117757488
 180    -8.2163500059376e-05
 181    0.00011513096165322
 182    5.8720228177714e-05
 183    -5.4782513768263e-05
 184    0.00032132284797453
 Sym= A
 Ene=               2
 Spin= Alpha
 Occup=    1.00000
   1    5.9017092278365e-05
   2    -0.0002302275514197
   3    0.00068334738332302
   4    0.0057103688649289
   5    -0.0030565510452018
   6    -6.6536613695363e-05
   7    0.0010324397229408
   8    -0.0004813657709632
   9    0.00063149535716199
  10    -0.0040908492144779
  11    0.0020047845604892
  12    -0.028691856566564
  13     0.042270764604613
  14    -0.028244954760005
  15       1.0703345484058
  16    -0.0010216983020998
  17    -0.0010250761507456
  18    -0.0016853379363555
  19    -0.0016784703072662
  20     -0.24672201842341
  21    0.0055090115303669
  22    0.0044096755237992
  23    0.0093621039738082
  24    0.0072573176661872
  25    0.00013374136121321
  26    0.00027357310810179
  27    0.00088664734556986
  28    0.00016760505171741
  29    -0.00017015900374905
  30    -0.0015641221492626
  31    -0.00020186663507696
  32    4.5462102958108e-05
  33    -0.00014345941704867
  34    0.00090755981109895
  35    0.0014268770120953
  36    -0.0049530158672935
  37    -0.00027272249653521
  38    -3.1156493470645e-06
  39    0.0001021448222293
  40    0.0010977966301856
  41    -5.4969048351532e-07
  42    -0.00043330884349967
  43    0.0011742008504573
  44    0.0013081725594317
  45    0.0046480860634444
  46    0.00031611002656423
  47    -0.00036682715902324
  48    9.6025881692054e-05
  49    -0.00021295617489309
  50    -0.00015116559012884
  51    -0.0021266311377808
  52    0.0017660071929721
  53    -0.00040928757884477
  54    0.0020317426085995
  55    0.00086031734838256
  56    -0.0001298674054516
  57    -0.0003743024162071
  58    -3.9384345381108e-05
  59    0.00019992438503334
  60    -9.5714044289394e-05
  61    0.00016410542284208
  62    8.9436484638417e-05
  63    -0.00077274892290704
  64    -0.0014343760855205
  65    -0.036349503216313
  66    -0.0077726543522432
  67    0.0014535568587956
  68    -0.0019358477712723
  69    -0.012005627544927
  70    -0.0070343478101696
  71    -0.021032116207276
  72    -0.00026649484415635
  73    -0.010536004597174
  74    -0.00034508252383668
  75    1.5112260754147e-05
  76    -0.00047250377766351
  77    0.00022204313421207
  78    -0.0023762162439097
  79    -0.0070209720919781
  80     0.044339550701389
  81    -0.00018555243567622
  82    0.00034987391773205
  83    -0.0013500001061385
  84    -0.00043643504315136
  85    -0.0020439116327794
  86    -0.0040846379549426
  87    -0.0024798751653999
  88     0.030114964258165
  89      -0.0255794656138
  90    0.0050483756674185
  91    0.0026490252202688
  92    -0.020308827436955
  93    -0.0091296954058977
  94    -0.0028241436613498
  95    7.6687813888981e-05
  96    -0.00083013899627312
  97    -0.0028002633794604
  98     0.016159335397834
  99    -0.00011975130213462
 100    0.00012837647482032
 101    0.00054886831290205
 102    0.0015463349116838
 103    -0.00082844706935676
 104    0.0032282511706601
 105    -0.015543052066387
 106      0.00995579575363
 107    0.00010903771115194
 108    -0.0078561871375997
 109    -0.0049289429916869
 110    0.0027916864127045
 111    0.0028620305416033
 112    -0.0094488376635296
 113    -0.0001121832872254
 114    0.0012028122029749
 115    0.0062436747822669
 116    -0.030526601156971
 117    -9.9486658280425e-06
 118    0.0005727343728981
 119    -2.4183946678997e-06
 120    -0.0010885114047245
 121    0.0005488346471374
 122    0.0017215643845353
 123     0.011872729633425
 124      0.02151848042672
 125    -0.012595926476358
 126    0.0042131949690844
 127    0.0038165802232226
 128    0.0098705283635381
 129    0.0056882699272085
 130    -0.0060480099005211
 131    -1.7481786249817e-06
 132    2.4199409879911e-05
 133    -0.00030428492457911
 134    0.00019928640834781
 135    6.656107619152e-05
 136    -1.2600275278427e-05
 137    -6.7174180329355e-07
 138    0.00034826605133408
 139    -4.1571598197726e-05
 140    4.4727567543192e-05
 141    -0.00079662988244302
 142    0.00036040111483096
 143    0.00031796703083526
 144    9.9420955805502e-05
 145    0.00018665839865146
 146    2.3860679595436e-05
 147    -7.5487461013195e-05
 148    0.00010625440108253
 149    -1.5886674058561e-05
 150    0.00015776756239583
 151    -0.0014425539340502
 152    0.0036480007223249
 153    -3.2165896502935e-05
 154    1.7969550800947e-05
 155    -1.0108952941412e-05
 156    -0.00025711271481257
 157    0.00013112227913976
 158    -5.4101144114747e-05
 159    0.0011341789911253
 160    -0.00074760174864066
 161    0.00041772373742948
 162    -0.00025289862984646
 163    8.9700863902033e-05
 164    2.3215397878725e-05
 165    0.00010885585525391
 166    -0.00020771398444901
 167    -1.6311786488143e-05
 168    0.00016358473504072
 169    -0.0015195975538329
 170    0.0036230801798878
 171    -3.1592675810911e-05
 172    -2.7302702791047e-05
 173    -5.2085658276062e-07
 174    -0.00023368504265861
 175    -0.00023177864807143
 176    1.7243254009905e-05
 177    0.00079143051902504
 178    0.0012279926806494
 179    -0.00011908187362772
 180    -0.00016003307316154
 181    -1.352922221797e-05
 182    -0.0001458134185559
 183    -8.9198627623777e-05
 184    0.00023859764756257
 Sym= A
 Ene=               3
 Spin= Alpha
 Occup=    1.00000
   1    -0.00014631523125652
   2    0.00048217359417462
   3    -0.0020419181501499
   4    -0.0056825715054847
   5    0.0054750069172165
   6    0.00063689407774604
   7    -0.0001133966430911
   8    -0.0006289352745024
   9    -0.0029876726212183
  10    0.00047284432569213
  11     0.002338863644442
  12     0.059935056158284
  13    -0.0063554888909881
  14    -0.013066868890453
  15    -0.0010216983020996
  16       1.0716286520452
  17    -0.0021905206091224
  18    0.0028651612089086
  19    0.00080418397928046
  20    0.0057458972500294
  21     -0.25350197689978
  22    0.0096021745973821
  23    -0.015415863464639
  24    -0.0038589256846167
  25    -0.00081340088885154
  26    0.00048020437768491
  27    -0.00035426471722655
  28    0.0014846197060876
  29    0.00086863209966194
  30    0.0010371086153169
  31    -0.00043306324927891
  32    6.9781454530056e-05
  33    -0.00029317271173554
  34    0.00094565569222083
  35      0.01431111010717
  36    -0.002277138339518
  37    -0.00053972260301991
  38    -1.7664325195321e-05
  39    0.00023877669067926
  40    0.0019966725152172
  41    6.8858227201148e-05
  42    -0.00084536097797528
  43     0.012289897890693
  44    -0.00070112822845264
  45    -0.0015858375460785
  46     0.000366827159023
  47    -0.00037804645449538
  48    -6.2786097302659e-05
  49    -0.0003764824209463
  50    6.0864812626642e-06
  51    -0.0031627379161297
  52    -0.00014870943938912
  53    0.00018184122717318
  54    0.0048030378769693
  55    -5.9624440488095e-05
  56    -1.9445880813748e-05
  57    -0.00022874825584275
  58    1.3003759601683e-05
  59    5.0982087258382e-05
  60    1.7111834558993e-05
  61    0.00025151817735891
  62    -6.141430299572e-06
  63    0.0015069830120873
  64    0.0069812493304536
  65     0.036730128281635
  66    0.0093468661394837
  67    -0.00016910016557433
  68    0.0042549691546372
  69     0.041132454515381
  70    0.0011081070012101
  71    -0.018158163942349
  72    -0.011145163728376
  73    -0.0066530234878489
  74    -0.00011593678493552
  75     0.009215910652641
  76    0.00017047250902156
  77    6.2081155144774e-05
  78    -0.00064817693512323
  79    8.1045860714353e-05
  80    0.0050032656559323
  81    -0.00027475751865937
  82    6.6603445616026e-05
  83    -0.00029530434083419
  84    -0.0034007398774105
  85    -0.0003423791590082
  86    -0.00075604617017207
  87     0.011215350277102
  88    0.0056444116717971
  89    -0.004853218248058
  90    0.0027135935916385
  91    -0.0085369307014019
  92    -0.0044170729731944
  93    -0.0026319410918236
  94    0.0061357696749208
  95    -0.0002798978089728
  96    0.0029671563592579
  97    0.0057181001132791
  98    -0.045660535577963
  99    0.0013256209551357
 100    -0.00053471530923105
 101    -0.0010257309859978
 102    0.0050150836862755
 103    0.00044511734227417
 104    -0.0018218973867274
 105     0.012074559930651
 106    -0.026069550560101
 107    -0.029873836902741
 108    -0.0054758989754331
 109     0.013044081323871
 110    -0.016395085545421
 111    0.0041239511922076
 112     0.010533506289562
 113    -6.7823991350829e-05
 114    0.00068769922638109
 115    0.00090328973829478
 116     -0.01001438615647
 117    0.00044050740475187
 118    0.00016617215022285
 119    -0.00019621841783498
 120    0.0028461418963523
 121    -0.00063061034976479
 122    -0.0014315645872866
 123    -0.0075940776976963
 124     0.012421948234229
 125    0.0030776307110384
 126    0.0037863258879831
 127    -0.00042057566661929
 128    -0.0013057828273094
 129    0.0075655800586146
 130    0.0019820262912015
 131    -1.3361601920434e-05
 132    0.00012425341798347
 133    -0.00067199000882563
 134    4.0129996742396e-05
 135    -6.772926827956e-05
 136    1.8520194204306e-05
 137    3.9324080086404e-05
 138    -0.00026197668838574
 139    0.00013337130502036
 140    0.00025968165152596
 141    -0.00039326577327752
 142    -0.00020547903217479
 143    -0.00034348402013519
 144    0.00012623862608489
 145    0.00029924535235047
 146    0.00026938335896993
 147    4.3099788578226e-05
 148    0.00017653263318267
 149    6.8025020540699e-06
 150    -5.9274931581307e-05
 151    0.00039544080539068
 152    -0.00054129432087198
 153    6.8388763995761e-05
 154    8.8510718515292e-06
 155    -2.8621142578422e-05
 156    0.00039629565072823
 157    3.9458367459066e-05
 158    -0.00016182230745477
 159    -0.0012053104479893
 160    -0.00017804418485445
 161    0.00063649360945105
 162    0.00020294648515451
 163    2.2229863390573e-05
 164    -0.00012932757122982
 165    -0.00012424624212811
 166    1.6785468671002e-05
 167    4.3382104300061e-06
 168    -3.4829414915944e-05
 169    0.00037256428961476
 170    -0.0013811371919648
 171    4.3749285758229e-05
 172    -1.0141097925622e-05
 173    -1.3561058071991e-05
 174    0.00028428747245854