[Molden Format]
made by pyscf v[2.0.1]
[Atoms] (AU)
Fe   1   26     3.17068844873907     0.00098706064664     0.12237737881307
Fe   2   26    -3.17068844873907    -0.00098706064664     0.12237737881307
O   3   8     0.00000000000000     0.00000000000000    -0.89004350580623
Cl   4   17     3.53383895113107    -2.07485195383062     3.76228752659000
Cl   5   17     5.54152580550813    -1.85590924879884    -2.78672786652360
Cl   6   17     4.48169216485503     3.92976278472880    -0.95330240907949
Cl   7   17    -3.53383895113107     2.07485195383062     3.76228752659000
Cl   8   17    -5.54152580550813     1.85590924879884    -2.78672786652360
Cl   9   17    -4.48169216485503    -3.92976278472880    -0.95330240907949
[GTO]
1 0
 s    6 1.00
          60923.640643  0.0017552243692958
          9147.8893982   0.013449023284001
          2081.3505927   0.066678874640978
          587.55977067    0.23176348548844
           191.0904399    0.46945550248188
          65.732730112     0.3596824938678
 s    3 1.00
          127.25891928   -0.10723431835929
           14.83091301    0.62971616328466
          6.0653307408    0.44472317896179
 s    3 1.00
           10.44994371   -0.21694289195548
          1.7245228003    0.69457867408393
         0.71772177325    0.43298308896347
 s    1 1.00
        0.091449828308                   1
 s    1 1.00
        0.033706691021                   1
 p    5 1.00
          773.43750995  0.0091440529992506
          182.15149714   0.067887577136571
          57.547272758    0.26167978878504
          20.614988935    0.51088040113251
           7.634855789    0.33235475570224
 p    3 1.00
           3.871932799    0.33193859098144
          1.4924724132     0.5553666555499
         0.56061284958    0.23106034201617
 p    1 1.00
              0.134915                   1
 d    4 1.00
          38.968133419   0.033335938558743
          10.800067078    0.17766212505983
          3.6136457999      0.441281781625
          1.2129967888    0.57089200490673
 d    1 1.00
          0.3652439317                   1
 f    1 1.00
                 1.598                   1

2 0
 s    6 1.00
          60923.640643  0.0017552243692958
          9147.8893982   0.013449023284001
          2081.3505927   0.066678874640978
          587.55977067    0.23176348548844
           191.0904399    0.46945550248188
          65.732730112     0.3596824938678
 s    3 1.00
          127.25891928   -0.10723431835929
           14.83091301    0.62971616328466
          6.0653307408    0.44472317896179
 s    3 1.00
           10.44994371   -0.21694289195548
          1.7245228003    0.69457867408393
         0.71772177325    0.43298308896347
 s    1 1.00
        0.091449828308                   1
 s    1 1.00
        0.033706691021                   1
 p    5 1.00
          773.43750995  0.0091440529992506
          182.15149714   0.067887577136571
          57.547272758    0.26167978878504
          20.614988935    0.51088040113251
           7.634855789    0.33235475570224
 p    3 1.00
           3.871932799    0.33193859098144
          1.4924724132     0.5553666555499
         0.56061284958    0.23106034201617
 p    1 1.00
              0.134915                   1
 d    4 1.00
          38.968133419   0.033335938558743
          10.800067078    0.17766212505983
          3.6136457999      0.441281781625
          1.2129967888    0.57089200490673
 d    1 1.00
          0.3652439317                   1
 f    1 1.00
                 1.598                   1

3 0
 s    5 1.00
          2266.1767785  -0.0053893503921743
          340.87010191   -0.04023472138896
          77.363135167   -0.18008184205526
           21.47964494   -0.46828857657651
          6.6589433124   -0.44692617160187
 s    1 1.00
         0.80975975668                   1
 s    1 1.00
         0.25530772234                   1
 p    3 1.00
          17.721504317   0.062630248763161
           3.863550544    0.33331138482352
          1.0480920883    0.74148638308122
 p    1 1.00
         0.27641544411                   1
 d    1 1.00
                   1.2                   1

4 0
 s    5 1.00
          10449.827566  0.0054265953789407
          1571.7365221   0.040626378128836
          357.12065523    0.18359747852877
          100.25185935    0.47438948768198
          30.812727554    0.43735181104122
 s    3 1.00
          51.923789434  -0.092754154848099
          5.7045760975    0.56380825544207
          2.3508376809    0.50367044629712
 s    1 1.00
         0.44605124672                   1
 s    1 1.00
          0.1684885619                   1
 p    5 1.00
          307.66790569  -0.0088797025588865
          72.102015515  -0.064284071721237
          22.532680262   -0.24288739736006
          7.8991765444   -0.48340836369878
          2.8767268321   -0.38952563875509
 p    1 1.00
         0.77459363955                   1
 p    1 1.00
         0.21037699698                   1
 d    1 1.00
                  0.65                   1

5 0
 s    5 1.00
          10449.827566  0.0054265953789407
          1571.7365221   0.040626378128836
          357.12065523    0.18359747852877
          100.25185935    0.47438948768198
          30.812727554    0.43735181104122
 s    3 1.00
          51.923789434  -0.092754154848099
          5.7045760975    0.56380825544207
          2.3508376809    0.50367044629712
 s    1 1.00
         0.44605124672                   1
 s    1 1.00
          0.1684885619                   1
 p    5 1.00
          307.66790569  -0.0088797025588865
          72.102015515  -0.064284071721237
          22.532680262   -0.24288739736006
          7.8991765444   -0.48340836369878
          2.8767268321   -0.38952563875509
 p    1 1.00
         0.77459363955                   1
 p    1 1.00
         0.21037699698                   1
 d    1 1.00
                  0.65                   1

6 0
 s    5 1.00
          10449.827566  0.0054265953789407
          1571.7365221   0.040626378128836
          357.12065523    0.18359747852877
          100.25185935    0.47438948768198
          30.812727554    0.43735181104122
 s    3 1.00
          51.923789434  -0.092754154848099
          5.7045760975    0.56380825544207
          2.3508376809    0.50367044629712
 s    1 1.00
         0.44605124672                   1
 s    1 1.00
          0.1684885619                   1
 p    5 1.00
          307.66790569  -0.0088797025588865
          72.102015515  -0.064284071721237
          22.532680262   -0.24288739736006
          7.8991765444   -0.48340836369878
          2.8767268321   -0.38952563875509
 p    1 1.00
         0.77459363955                   1
 p    1 1.00
         0.21037699698                   1
 d    1 1.00
                  0.65                   1

7 0
 s    5 1.00
          10449.827566  0.0054265953789407
          1571.7365221   0.040626378128836
          357.12065523    0.18359747852877
          100.25185935    0.47438948768198
          30.812727554    0.43735181104122
 s    3 1.00
          51.923789434  -0.092754154848099
          5.7045760975    0.56380825544207
          2.3508376809    0.50367044629712
 s    1 1.00
         0.44605124672                   1
 s    1 1.00
          0.1684885619                   1
 p    5 1.00
          307.66790569  -0.0088797025588865
          72.102015515  -0.064284071721237
          22.532680262   -0.24288739736006
          7.8991765444   -0.48340836369878
          2.8767268321   -0.38952563875509
 p    1 1.00
         0.77459363955                   1
 p    1 1.00
         0.21037699698                   1
 d    1 1.00
                  0.65                   1

8 0
 s    5 1.00
          10449.827566  0.0054265953789407
          1571.7365221   0.040626378128836
          357.12065523    0.18359747852877
          100.25185935    0.47438948768198
          30.812727554    0.43735181104122
 s    3 1.00
          51.923789434  -0.092754154848099
          5.7045760975    0.56380825544207
          2.3508376809    0.50367044629712
 s    1 1.00
         0.44605124672                   1
 s    1 1.00
          0.1684885619                   1
 p    5 1.00
          307.66790569  -0.0088797025588865
          72.102015515  -0.064284071721237
          22.532680262   -0.24288739736006
          7.8991765444   -0.48340836369878
          2.8767268321   -0.38952563875509
 p    1 1.00
         0.77459363955                   1
 p    1 1.00
         0.21037699698                   1
 d    1 1.00
                  0.65                   1

9 0
 s    5 1.00
          10449.827566  0.0054265953789407
          1571.7365221   0.040626378128836
          357.12065523    0.18359747852877
          100.25185935    0.47438948768198
          30.812727554    0.43735181104122
 s    3 1.00
          51.923789434  -0.092754154848099
          5.7045760975    0.56380825544207
          2.3508376809    0.50367044629712
 s    1 1.00
         0.44605124672                   1
 s    1 1.00
          0.1684885619                   1
 p    5 1.00
          307.66790569  -0.0088797025588865
          72.102015515  -0.064284071721237
          22.532680262   -0.24288739736006
          7.8991765444   -0.48340836369878
          2.8767268321   -0.38952563875509
 p    1 1.00
         0.77459363955                   1
 p    1 1.00
         0.21037699698                   1
 d    1 1.00
                  0.65                   1

[5d]
[7f]
[9g]

[MO]
 Sym= A
 Ene=               0
 Spin= Alpha
 Occup=    1.00000
   1    1.3182979403324e-05
   2    -6.2473080043008e-05
   3    1.7199171940702e-05
   4    0.0017960510515405
   5    0.00085192052585002
   6    0.00027851571140478
   7    -0.00028676029102164
   8    -9.1410679296237e-05
   9    -0.0010317712056703
  10    0.0013795759049241
  11    0.00039758218234704
  12    0.0092582101738341
  13    -0.017125419980951
  14    -0.0050972595137279
  15    -0.0013353165622086
  16    0.00046640302725123
  17    -0.0020355920483438
  18    -0.0015161125081905
  19       1.0667778099945
  20    0.0078261612402857
  21    -0.0044996121542326
  22     0.002980047782022
  23    0.0072387419905001
  24      -0.2508551375462
  25    -5.9017202117159e-06
  26    0.00051795659909344
  27    -0.00028526251721076
  28    -0.00030703708999782
  29    0.0014033218539775
  30    0.00040854783289681
  31    0.0013199644016652
  32    -3.3662750332632e-05
  33    8.9825870168965e-05
  34    -0.00047460560409295
  35    0.0021363979836949
  36    -0.00051195004662654
  37    1.8453464259829e-05
  38    0.00050110118129309
  39    1.7103983978637e-05
  40    -4.090248125872e-05
  41    -0.0016619409376863
  42    -8.8110647478799e-05
  43    0.00070888661446427
  44     0.013473721862402
  45    0.0010548227465042
  46    -0.00043778264213092
  47    0.00027218772654437
  48    0.00028543143291271
  49    0.0005485662401924
  50    -0.0015608845110693
  51    -0.0021626682909316
  52    0.00011978826040004
  53    -0.0085758238690257
  54    -0.0021473925605369
  55     0.028975775440676
  56    -1.8305583182159e-05
  57    2.2376854262164e-05
  58    -0.0001579625193281
  59    -3.1056500858087e-05
  60    -0.00048155476081462
  61    -1.0476836657886e-05
  62    0.0010440177024218
  63    1.1336770071868e-05
  64    -0.00031873736971382
  65    0.0025202616273237
  66    -0.0045677294406146
  67     0.094733895042876
  68    0.0037494229343743
  69    0.0013342353046954
  70    -0.055061483087154
  71    -0.0018276691188338
  72    -0.00016002342585661
  73    0.00021089046276456
  74     -0.00728200973867
  75    -2.2424666235143e-05
  76    -0.014632566108466
  77    -2.1175035941772e-05
  78    0.00023735915377035
  79    0.0010103866128686
  80    -0.0055799675974549
  81    0.00019926664883659
  82    -0.00022008381915473
  83    -5.0159382765475e-05
  84    0.0031330722652774
  85     -0.00093954830757
  86    -0.00070137094505457
  87    -0.012516528453731
  88    0.00025756657022517
  89    0.0065010098491225
  90    -0.0036477991358594
  91    0.0077314304360239
  92    0.0014134623715346
  93    0.00063217591222805
  94    -0.0022365539940387
  95    -0.00016100621359564
  96    0.0016750948849228
  97    0.0045369189748455
  98    -0.027129692111301
  99    0.00058947433073207
 100    -0.00065220500705764
 101    -0.00053848630408359
 102    0.0021781506718474
 103    -0.0027975600418425
 104    0.00067265720124504
 105     0.008949987660255
 106    -0.0029971435943203
 107    -0.025147440571183
 108    -0.010885253693603
 109     0.010486512833058
 110    -0.0052603777041183
 111    -0.0024917299984247
 112    0.0027982071705778
 113    0.00016342042660706
 114    -0.0016632759335178
 115    -0.0048949304574408
 116     0.024988733082709
 117    -0.00044253460710505
 118    -0.0007683605933756
 119    0.00025443457762727
 120    -0.0039143110279994
 121    0.00017057418890783
 122    -0.00044344125959976
 123    0.0071361719771614
 124    -0.026231642899734
 125     0.009950517019396
 126    -0.0044901207042123
 127    0.00025577955766542
 128    -0.0088160544324116
 129    -0.015237192194159
 130    -0.0010348399288342
 131    4.8372178787693e-05
 132    -0.00034105959499035
 133    0.00092719694534362
 134    -0.0021615950957114
 135    -0.00028701476018395
 136    -0.00013483832752422
 137    -0.00022591772130937
 138    -0.000425372096459
 139    -0.00011517654050618
 140    -0.00071245739433923
 141    -0.001427074836186
 142    -0.0010064797559599
 143    0.0012183487650664
 144    -0.00023422013665617
 145    0.00040800633565225
 146    0.0002769730199921
 147    -0.00012612129447048
 148    0.00014948218522331
 149    3.9004316613619e-05
 150    -0.00025714543074588
 151    0.00030955772591655
 152    -0.0006701827295596
 153    -0.00015112683260468
 154    -6.4206611116034e-05
 155    0.00030770505613055
 156    -0.00023192906372641
 157    0.00012851274477483
 158    0.00068989639752054
 159    -0.00093542007940837
 160    -0.001556045374471
 161    0.00021158807234414
 162    0.00016525386797718
 163    -0.00015259683796908
 164    -0.00040876848487498
 165    -0.00033165047322922
 166    -0.00021675495947536
 167    -5.0838631276888e-05
 168    0.0002801605919142
 169    6.6512773755258e-05
 170    0.0012278212708678
 171    0.00055477299999341
 172    -0.00039574412655289
 173    -0.00036064176297078
 174    0.0013401130763322
 175    -0.00050394794104919
 176    -0.0007310232746541
 177     0.001068769853143
 178    -0.00089815727426895
 179    -0.00044567483996263
 180    4.7125133210204e-05
 181    0.00019149932615842
 182    -0.00023240671083075
 183    0.00022780093643862
 184    0.00042276774469862
 Sym= A
 Ene=               1
 Spin= Alpha
 Occup=    1.00000
   1    0.00030887384826855
   2    -0.0011097750373533
   3    0.0030469841177982
   4     0.021699095916009
   5    0.0035004434605107
   6    0.0016493204770262
   7    0.00054517698074504
   8     0.001374972171596
   9    -0.0055571102858709
  10    -0.0020141357295948
  11    -0.0054018996429216
  12    -0.0082996917354507
  13     0.014915528709713
  14     0.044141801019135
  15    -0.0048620925946922
  16     0.002855553998882
  17       1.0687203888605
  18      0.01095421818987
  19    -0.0017406693975454
  20     0.010251446206287
  21      0.00129224317438
  22     -0.24496560798634
  23    -0.022987731739907
  24    0.0034473743828233
  25    0.00026922158714518
  26    -0.00042071577220379
  27    -0.00094570255100425
  28    2.4421492777553e-05
  29    -0.00080981221146967
  30    6.7307778656267e-05
  31    0.00061546532236391
  32    -0.00025763112903058
  33    0.00079904530443814
  34    -0.0033345897129007
  35    -0.0058277247845457
  36    0.00044053617889056
  37    0.0011332230661313
  38    0.00042673032330798
  39    -0.00082829310919364
  40    -0.0037781599102422
  41    -0.0014513720447084
  42    0.0026551599662687
  43    -0.0047653694029898
  44    0.0079699994431598
  45    0.0037306043038591
  46    -0.0070219546056732
  47    -0.0051260015139726
  48    -0.00093875996930023
  49    0.0078802354906638
  50    -0.0011073064137651
  51     0.010843189240939
  52    0.0074269154073088
  53      0.00199387855798
  54     -0.01448742496646
  55    0.0077937376626704
  56    5.8800499984037e-05
  57    -0.00024577251172408
  58    2.0069058999133e-06
  59    -6.7738255298528e-05
  60    -0.00019603526986092
  61    0.00014754037593044
  62    0.00032267595485795
  63    0.0015081412477442
  64    0.0052240105990526
  65    0.0076455345269258
  66     0.042162207616653
  67      0.02121266671501
  68     0.021718740380703
  69     -0.03989125478875
  70     -0.01085396188232
  71     -0.02905655118602
  72    -0.0011180806154933
  73    -0.00080055545889598
  74    0.0018924046518684
  75    0.0011424858720252
  76    -0.0063367564175733
  77    -0.00018662648529228
  78     0.002334055934642
  79     0.008358423225962
  80    -0.048061320041349
  81    -0.00022261608149675
  82    -0.00068871426093583
  83    0.00074984731255624
  84    -0.0011192721063507
  85    -0.002946669118994
  86    0.00088521501506148
  87     0.006500867846572
  88    -0.013430655819885
  89     0.037218384230481
  90    -0.019445765966825
  91    -0.0052656865910991
  92     0.014651091913015
  93    0.0010789119621311
  94    0.0021741542146477
  95    0.00020038251647315
  96    -0.0021750546142966
  97    -0.0040236734751846
  98     0.032024417390538
  99    -0.00048387024248066
 100    0.00069833434836169
 101    0.0011336609843651
 102    0.0007914274657434
 103    0.0030293414750579
 104    0.0028705583678724
 105    -0.025794788082259
 106    0.0055574200520023
 107     0.018646566193004
 108    0.0027465300744894
 109    -0.015305669374687
 110    0.0057256631050682
 111    0.0085533433814081
 112    -0.0058407693953122
 113    -0.0001236370061891
 114    0.0013292230600676
 115    0.0046811560338582
 116    -0.023239953774964
 117    0.00018407537721673
 118    0.00043195331788681
 119    -0.00048311586974311
 120    -0.00061090793420505
 121    -0.00017743608415714
 122    -0.0039031718699717
 123      0.01033129733362
 124     0.020226952212115
 125    0.0070952402282134
 126    0.0095194120354413
 127    -0.00094145086427222
 128    -0.0032657093875133
 129    0.0086339530537991
 130    -0.0093124746065498
 131    -5.417655590413e-05
 132    0.00031332349335609
 133    0.0013353981277747
 134    -0.0055509416868638
 135    -0.00023625508115343
 136    2.0055114863441e-05
 137    0.00032361945287648
 138    5.4880695209432e-05
 139    1.6637631265742e-05
 140    0.00026185951100405
 141    -0.0026442172608931
 142     0.001164134965155
 143    0.0042146052595067
 144    -0.00046866084583996
 145    0.00030182845718438
 146    -0.00055486276278512
 147    -6.8327739672044e-05
 148    0.0001781431036205
 149    -9.0545622106843e-05
 150    0.00061187883622453
 151    -0.00099823038842371
 152    -0.00062695884230152
 153    -0.0010838329292864
 154    0.00020768930920598
 155    0.00015592650525857
 156    -0.0019009877557232
 157    0.00049967263739341
 158    0.00037701876024306
 159    -0.0031006885721222
 160    -4.2362452067791e-05
 161    -0.00041152358358113
 162    -0.00033920911367497
 163    -0.00015713457673191
 164    5.2477872364505e-05
 165    9.8271355718772e-05
 166    -0.00015602192273124
 167    -9.0620334855476e-05
 168    0.00060056061339057
 169    -0.0011670233532497
 170    0.0018165207657577
 171    -0.00038179583677689
 172    -0.00050250406057758
 173    0.00021386737619444
 174    -0.00063069797219821
 175    -0.00099063467030749
 176    0.00028747932802512
 177    -0.00057323427262159
 178    -0.0003874673188001
 179    0.00094606239684383
 180    -3.1917466097238e-05
 181    5.2557443788283e-05
 182    -0.00021374638847508
 183    0.00020295190414153
 184    0.00040344965880626
 Sym= A
 Ene=               2
 Spin= Alpha
 Occup=    1.00000
   1    0.00051656558226907
   2    -0.0016056668722321
   3    0.0072386326567522
   4      0.01533090615601
   5    -0.0042378394001266
   6    0.0017650882108815
   7    0.0010807360357232
   8    -0.00010997464501507
   9    -0.0060122983361342
  10    -0.0042313111890088
  11    0.0005877590798061
  12    -0.030827591069926
  13     0.041221441986428
  14    -0.027580388247569
  15       1.0615075568746
  16    0.0075281874324883
  17    -0.0036341563653752
  18     0.015080136817945
  19    -0.0013074019324779
  20     -0.24164604438837
  21    -0.015580076535444
  22     0.010874554471209
  23    -0.0086068707212182
  24    0.0088591070782686
  25    -0.00014157367902233
  26    0.00034974221827969
  27    0.0008039066348222
  28    0.00061949591868067
  29    -0.00014776616582844
  30    -0.0012996170280738
  31    -0.0002943461799347
  32    -0.00010947213604929
  33    0.00034825491631486
  34    -0.0011157143456432
  35    -0.003895553154754
  36    -0.0066691600003809
  37    0.00038411463347326
  38    0.00013392021639902
  39    -0.00038626204350978
  40     -0.00125846821764
  41    -0.00045396312378645
  42    0.0011289105443497
  43    0.0021453567601955
  44    0.0021641150451742
  45     0.013299637104684
  46    -0.00054508391024617
  47    0.0074762704855097
  48    -0.0072478658942533
  49    -0.0062524150742255
  50    -0.00019697700167383
  51    -0.010636317080897
  52    0.0048554955027126
  53    0.0097344780263004
  54     0.015329500503594
  55    -0.0034794683620373
  56    -0.00027977965948801
  57    -0.000851274045768
  58    -2.8907983222703e-05
  59    0.00043222660192128
  60    -0.00015707923105401
  61    0.00040619744041313
  62    -1.8590271474196e-05
  63    0.00010787833004838
  64    0.0028261771526692
  65    -0.037297980103165
  66     0.066266985386714
  67    -0.013428512431514
  68      0.11076026359646
  69    -0.053254619735655
  70    0.0023263912458537
  71    -0.075706476161849
  72    -0.0015828810081334
  73    -0.010491410345284
  74    -0.00022397531608008
  75    0.00063833068642949
  76    -0.00055478517152208
  77    0.00031625383223101
  78    -0.0029703896056916
  79    -0.0057551634124561
  80     0.042737351785789
  81    -8.9889823810859e-05
  82    0.00070208911029646
  83    -0.0019846439399058
  84    -0.00044040365227532
  85    -0.0014118602410103
  86    -0.0052204197690944
  87    -0.00093779074263271
  88     0.030510670261068
  89    -0.026184835635838
  90    0.0046852061537449
  91    0.0017861185402498
  92    -0.020048783630923
  93    -0.0090678021793207
  94    -0.0022846765918489
  95    -1.8939939467024e-05
  96    -0.00015761179825881
  97    -0.0029482870603786
  98     0.012379939703581
  99    0.00015907343439365
 100    -3.2181883960984e-05
 101    0.00042897951915128
 102     0.001830369217771
 103    -0.0012270376938569
 104    0.0029223539674554
 105    -0.012128153378544
 106    0.0087662081315247
 107    -0.0018233312260688
 108    -0.0078710828478411
 109    -0.0038995372219706
 110    0.0024319121712668
 111    0.0024927841911329
 112    -0.0089084995667164
 113    -0.00015047023741523
 114    0.0014918427866412
 115    0.0062440081642588
 116    -0.032590894671976
 117    2.6641797551411e-05
 118    0.00059253123314619
 119    -3.2389159930474e-06
 120    -0.0010612402935847
 121    0.00063237886557245
 122    0.0017668844530807
 123      0.01276053550567
 124     0.022967225066673
 125    -0.013266592716625
 126    0.0044537061750095
 127    0.0040844004900145
 128     0.010206004565686
 129    0.0061417761169909
 130    -0.0066179442760007
 131    2.6123077876454e-05
 132    -0.00014337407060353
 133    0.00013385718142642
 134    -0.0010206010511023
 135    0.00023444085361864
 136    -0.00036201404131651
 137    -3.0016639013078e-05
 138    0.00063997825595337
 139    -0.00080608237283282
 140    -4.591413750205e-05
 141    -0.00055070084122546
 142    0.00059853305256201
 143    0.0012671264001928
 144    -3.6245584119866e-06
 145    0.0003540336223559
 146    -0.00036847032101883
 147    -2.2780173608331e-05
 148    0.00025747175684913
 149    -7.3941692651169e-05
 150    0.0005433742677454
 151    -0.0033190445423638
 152    0.0086234720435963
 153    -0.00015470674793235
 154     0.000343432988742
 155    -0.00031754425546255
 156    -0.00066875287624281
 157    0.00078198421500039
 158    -0.00060314956837568
 159      0.00339192687761
 160    -0.0012629557589039
 161    0.00082128331299995
 162    -0.00075267405031114
 163    0.00080701246061071
 164    -0.00011380472698241
 165    0.00059146338452088
 166    -0.00085796936483858
 167    -1.536513688254e-05
 168    0.00016928215741658
 169    -0.0024949477836057
 170    0.0073110543282024
 171    -2.6418883819739e-05
 172    -0.00014221576417433
 173     0.000388655107019
 174    -0.00020949703519904
 175    -0.00056698295171818
 176    0.0007203656361477
 177     0.001308587661099
 178    0.0029268630635907
 179    0.0009209393896772
 180    -0.00043900696711519
 181    -4.660318446715e-05
 182    -0.00023745325356478
 183    -0.0004752995857139
 184    0.00059033751848398
 Sym= A
 Ene=               3
 Spin= Alpha
 Occup=    1.00000
   1    -0.00070234985664202
   2    0.0021663799523274
   3    -0.0099682222708541
   4    -0.019330019189561
   5     0.004100339616038
   6    -0.0018159729648604
   7    -0.00017026825711482
   8    -0.00041714575450697
   9    0.0058802734401651
  10    0.00066276819611849
  11    0.0019617568766618
  12     0.061403165698103
  13    -0.0065213873737034
  14    -0.0033440999205847
  15    0.0078330706644178
  16       1.0593529150124
  17    0.0014109113517101
  18     -0.01705572802428
  19    0.00051975862826387
  20    -0.0080717119817789
  21     -0.24087589603797
  22    0.0035819543009703
  23     0.010066610272768
  24    -0.0048619745397018
  25    -0.00076581042498045
  26    0.00089092102387177
  27    -0.00022567248642911
  28    0.0013713002158625
  29    0.00080944153567841
  30    0.00057495138321528
  31    -0.0003542914383295
  32    7.6714714382877e-05
  33    -0.00037417902542845
  34    0.0015404505883825
  35     0.033288137621083
  36    -0.0039431083629801
  37    -0.00093876064030525
  38    -0.00019890846911553
  39    0.0014423916660414
  40    0.0040730215037551
  41    0.00065994706945635
  42    -0.0048133664815289
  43     0.020121520448149
  44    -0.0023182837299644
  45    -0.0078883888044575
  46    0.0032812696259884
  47    -0.009100505269209
  48     0.010373889731773
  49    0.0094262141123316
  50    0.0011280968763997
  51    -0.012244732806262
  52    0.0099959200380336
  53    -0.018948064194823
  54    0.0029693532913132
  55    0.0011614532664621
  56    -2.7714120626402e-05
  57    -5.17030830976e-06
  58    -2.974029311299e-05
  59    5.0079580458147e-05
  60    0.00015545681359647
  61    0.00013802390850915
  62    8.9526763631637e-05
  63    -0.00018847112755802
  64    0.0015328833167911
  65     0.029808078545292
  66     -0.12940277487798
  67    0.0060888180088293
  68    -0.015672854836364
  69      0.10546973580194
  70    -0.005007541120168
  71     0.031709058282779
  72    -0.0099656064854004
  73    -0.0065149828833865
  74    -0.00011889210761912
  75    0.0088353993726901
  76    0.00030866236542538
  77    -5.0278144069983e-05
  78    8.0251878017773e-05
  79    -0.0017357251389014
  80    0.0062679733976359
  81    0.00020552103508299
  82    -0.00036089711732614
  83    0.00048950925529805
  84    -0.0023624569863498
  85    -0.00097649738930203
  86    0.00060757273508549
  87     0.011255407518588
  88    0.0043031998346368
  89    -0.0035135030979728
  90    0.0031625937341455
  91    -0.0076183625924178
  92    -0.0046774227366088
  93    -0.0026428008559887
  94    0.0055827412227009
  95    -0.00018092178830996
  96    0.0022844756865779
  97    0.0049743260537483
  98    -0.037557910608368
  99    0.00060970868752426
 100    -0.00038806657680943
 101    -0.0011442174543194
 102    0.0041061720927004
 103    0.00069911371318344
 104    -0.0019344841004586
 105    0.0057757217035319
 106    -0.023689300371436
 107    -0.027991767008354
 108    -0.0057824497743407
 109     0.011734978095455
 110    -0.016018860287781
 111     0.004602551385166
 112    0.0096865229436201
 113    -2.3633476049778e-05
 114    0.0003678325692332
 115    9.3358137297039e-05
 116    -0.0043666208925846
 117    0.00025684437136113
 118    0.00013646281446447
 119    -0.00043857421113888
 120    0.0025601202009536
 121    -0.00061881859048045
 122    -0.0018163810824008
 123    -0.0094576475064476
 124    0.0092104640192129
 125     0.002688403685031
 126    0.0033234489511134
 127    -0.00076185364870652
 128    -0.0015167819429104
 129    0.0068728659221503
 130    0.0028671113782637
 131    4.1087808504396e-05
 132    -0.00024251230865628
 133    -0.001146300688413
 134    0.0029529255914619
 135    -0.00073013087991837
 136    0.00027868615088059
 137    -0.00014303401572801
 138    -0.0013455371188228
 139    0.00070863356294878
 140    -6.7897212061545e-05
 141    -0.0026338365417723
 142    -0.0013832273362832
 143    -0.0030899599752901
 144    0.0006215078341074
 145    0.00030911581021563
 146    0.0013414817860502
 147    -0.00013759012107961
 148    0.00016228340802598
 149    -3.1014310164223e-06
 150     3.83937049106e-05
 151    0.0018335959838558
 152    -0.0065374278301095
 153    0.00058761988332996
 154    -0.0002027520980724
 155    -0.0005083955685989
 156    0.0015293501811559
 157    -0.00032026948278926
 158    -0.0010162166691778
 159    -0.0033388680622554
 160    0.00080837564391046
 161    -0.0028440203051373
 162    0.00056930389857377
 163      -0.0011620180651
 164    0.00025909018017888
 165    -0.00079169034398559
 166    0.00090506162878369
 167    3.4120416182908e-05
 168    -0.00021434400990332
 169    0.0013758975107906
 170    -0.0048629534916711
 171    0.00024620431672129
 172    0.00018906017122436
 173    -0.00087793931461998
 174    0.00062426525380494
 175    0.00032716747528979
 176    -0.0015247609259312
 177    -0.0016726128268956