[Molden Format]
made by pyscf v[2.2.1]
[Atoms] (AU)
Fe   1   26     3.17068844873907     0.00098706064664     0.12237737881307
O   2   8     0.00000000000000     0.00000000000000    -0.89004350580623
Fe   3   26    -3.17068844873907    -0.00098706064664     0.12237737881307
Cl   4   17     3.53383895113107    -2.07485195383062     3.76228752659000
Cl   5   17     5.54152580550813    -1.85590924879884    -2.78672786652360
Cl   6   17     4.48169216485503     3.92976278472880    -0.95330240907949
Cl   7   17    -3.53383895113107     2.07485195383062     3.76228752659000
Cl   8   17    -5.54152580550813     1.85590924879884    -2.78672786652360
Cl   9   17    -4.48169216485503    -3.92976278472880    -0.95330240907949
[GTO]
1 0
 s    8 1.00
          300784.84637  0.00024103305017787
          45088.970557  0.0018687382457119
          10262.516317  0.0097155134617046
          2905.2897293   0.039479967013317
          946.11487137    0.12842162832271
          339.87832894    0.30457860754832
          131.94425588    0.43465553776779
          52.111494077    0.22742382379948
 s    4 1.00
          329.48839267  -0.024716645792921
          101.92332739   -0.11669599822835
          16.240462745    0.55229779440271
          6.8840675801    0.53539752037712
 s    2 1.00
          10.470693782   -0.37745869768095
          1.7360039648     1.1722622909796
 s    1 1.00
         0.72577288979                   1
 s    1 1.00
         0.11595528203                   1
 s    1 1.00
        0.041968227746                   1
 p    6 1.00
           1585.395997  0.0027395641750272
          375.38006499   0.022167496552173
          120.31816501    0.10364840341367
          44.788749031    0.29703230666936
          17.829278584    0.47773374381763
          7.2247153786    0.27871749884095
 p    3 1.00
          28.143219756  -0.020268742366329
          3.8743241412    0.38603381535444
          1.5410752281    0.67538247288481
 p    1 1.00
          0.5828561525                   1
 p    1 1.00
              0.134915                   1
 d    4 1.00
          61.996675034   0.019497333982305
          17.873732552    0.11922868100386
          6.2744782934    0.37625274789341
          2.3552337175    0.64997843079553
 d    1 1.00
         0.85432239901                   1
 d    1 1.00
         0.27869254413                   1
 d    1 1.00
                 0.091                   1
 f    1 1.00
                 1.598                   1

2 0
 s    6 1.00
          27032.382631  0.00057227335211155
          4052.3871392  0.0044353233492995
           922.3272271   0.023020107706038
          261.24070989   0.092822490667928
          85.354641351    0.29378500009671
          31.035035245    0.67401604501641
 s    2 1.00
          12.260860728    0.63839937025506
          4.9987076005    0.39534587125718
 s    1 1.00
          1.1703108158                   1
 s    1 1.00
         0.46474740994                   1
 s    1 1.00
         0.18504536357                   1
 p    4 1.00
          63.274954801   0.012018332222616
          14.627049379   0.083005421790056
          4.4501223456    0.31991743925964
          1.5275799647    0.70715542916104
 p    1 1.00
         0.52935117943                   1
 p    1 1.00
          0.1747842127                   1
 d    1 1.00
                 2.314                   1
 d    1 1.00
                 0.645                   1
 f    1 1.00
                 1.428                   1

3 0
 s    8 1.00
          300784.84637  0.00024103305017787
          45088.970557  0.0018687382457119
          10262.516317  0.0097155134617046
          2905.2897293   0.039479967013317
          946.11487137    0.12842162832271
          339.87832894    0.30457860754832
          131.94425588    0.43465553776779
          52.111494077    0.22742382379948
 s    4 1.00
          329.48839267  -0.024716645792921
          101.92332739   -0.11669599822835
          16.240462745    0.55229779440271
          6.8840675801    0.53539752037712
 s    2 1.00
          10.470693782   -0.37745869768095
          1.7360039648     1.1722622909796
 s    1 1.00
         0.72577288979                   1
 s    1 1.00
         0.11595528203                   1
 s    1 1.00
        0.041968227746                   1
 p    6 1.00
           1585.395997  0.0027395641750272
          375.38006499   0.022167496552173
          120.31816501    0.10364840341367
          44.788749031    0.29703230666936
          17.829278584    0.47773374381763
          7.2247153786    0.27871749884095
 p    3 1.00
          28.143219756  -0.020268742366329
          3.8743241412    0.38603381535444
          1.5410752281    0.67538247288481
 p    1 1.00
          0.5828561525                   1
 p    1 1.00
              0.134915                   1
 d    4 1.00
          61.996675034   0.019497333982305
          17.873732552    0.11922868100386
          6.2744782934    0.37625274789341
          2.3552337175    0.64997843079553
 d    1 1.00
         0.85432239901                   1
 d    1 1.00
         0.27869254413                   1
 d    1 1.00
                 0.091                   1
 f    1 1.00
                 1.598                   1

4 0
 s    7 1.00
          69507.990945  0.00051457389646325
           10426.15688  0.0039781344806745
          2373.2334061   0.020456178670619
          671.56420071   0.080148102887582
           218.4199979    0.23454770317658
          77.572249714    0.44543368582255
          28.888815277    0.35466842499038
 s    3 1.00
          127.10527185    0.11293688054705
          39.339582961     0.4837351421006
          7.6740679989     -1.229229738981
 s    2 1.00
           3.874562763    0.67296821635762
          1.8385832573    0.34956051409054
 s    1 1.00
         0.50229057542                   1
 s    1 1.00
          0.1796272342                   1
 p    5 1.00
          666.50423284  0.0033502508198275
           157.6424169   0.026763970407523
          50.262520978      0.123626823608
          18.536078105    0.35845787918981
          7.2940532777    0.61677296353714
 p    1 1.00
          2.9433248995                   1
 p    1 1.00
          1.0404970818                   1
 p    1 1.00
          0.3845641508                   1
 p    1 1.00
         0.13069642732                   1
 d    2 1.00
                  4.61    0.18265835045336
                 1.011    0.91329175226681
 d    1 1.00
                 0.339                   1
 f    1 1.00
                 0.706                   1

5 0
 s    7 1.00
          69507.990945  0.00051457389646325
           10426.15688  0.0039781344806745
          2373.2334061   0.020456178670619
          671.56420071   0.080148102887582
           218.4199979    0.23454770317658
          77.572249714    0.44543368582255
          28.888815277    0.35466842499038
 s    3 1.00
          127.10527185    0.11293688054705
          39.339582961     0.4837351421006
          7.6740679989     -1.229229738981
 s    2 1.00
           3.874562763    0.67296821635762
          1.8385832573    0.34956051409054
 s    1 1.00
         0.50229057542                   1
 s    1 1.00
          0.1796272342                   1
 p    5 1.00
          666.50423284  0.0033502508198275
           157.6424169   0.026763970407523
          50.262520978      0.123626823608
          18.536078105    0.35845787918981
          7.2940532777    0.61677296353714
 p    1 1.00
          2.9433248995                   1
 p    1 1.00
          1.0404970818                   1
 p    1 1.00
          0.3845641508                   1
 p    1 1.00
         0.13069642732                   1
 d    2 1.00
                  4.61    0.18265835045336
                 1.011    0.91329175226681
 d    1 1.00
                 0.339                   1
 f    1 1.00
                 0.706                   1

6 0
 s    7 1.00
          69507.990945  0.00051457389646325
           10426.15688  0.0039781344806745
          2373.2334061   0.020456178670619
          671.56420071   0.080148102887582
           218.4199979    0.23454770317658
          77.572249714    0.44543368582255
          28.888815277    0.35466842499038
 s    3 1.00
          127.10527185    0.11293688054705
          39.339582961     0.4837351421006
          7.6740679989     -1.229229738981
 s    2 1.00
           3.874562763    0.67296821635762
          1.8385832573    0.34956051409054
 s    1 1.00
         0.50229057542                   1
 s    1 1.00
          0.1796272342                   1
 p    5 1.00
          666.50423284  0.0033502508198275
           157.6424169   0.026763970407523
          50.262520978      0.123626823608
          18.536078105    0.35845787918981
          7.2940532777    0.61677296353714
 p    1 1.00
          2.9433248995                   1
 p    1 1.00
          1.0404970818                   1
 p    1 1.00
          0.3845641508                   1
 p    1 1.00
         0.13069642732                   1
 d    2 1.00
                  4.61    0.18265835045336
                 1.011    0.91329175226681
 d    1 1.00
                 0.339                   1
 f    1 1.00
                 0.706                   1

7 0
 s    7 1.00
          69507.990945  0.00051457389646325
           10426.15688  0.0039781344806745
          2373.2334061   0.020456178670619
          671.56420071   0.080148102887582
           218.4199979    0.23454770317658
          77.572249714    0.44543368582255
          28.888815277    0.35466842499038
 s    3 1.00
          127.10527185    0.11293688054705
          39.339582961     0.4837351421006
          7.6740679989     -1.229229738981
 s    2 1.00
           3.874562763    0.67296821635762
          1.8385832573    0.34956051409054
 s    1 1.00
         0.50229057542                   1
 s    1 1.00
          0.1796272342                   1
 p    5 1.00
          666.50423284  0.0033502508198275
           157.6424169   0.026763970407523
          50.262520978      0.123626823608
          18.536078105    0.35845787918981
          7.2940532777    0.61677296353714
 p    1 1.00
          2.9433248995                   1
 p    1 1.00
          1.0404970818                   1
 p    1 1.00
          0.3845641508                   1
 p    1 1.00
         0.13069642732                   1
 d    2 1.00
                  4.61    0.18265835045336
                 1.011    0.91329175226681
 d    1 1.00
                 0.339                   1
 f    1 1.00
                 0.706                   1

8 0
 s    7 1.00
          69507.990945  0.00051457389646325
           10426.15688  0.0039781344806745
          2373.2334061   0.020456178670619
          671.56420071   0.080148102887582
           218.4199979    0.23454770317658
          77.572249714    0.44543368582255
          28.888815277    0.35466842499038
 s    3 1.00
          127.10527185    0.11293688054705
          39.339582961     0.4837351421006
          7.6740679989     -1.229229738981
 s    2 1.00
           3.874562763    0.67296821635762
          1.8385832573    0.34956051409054
 s    1 1.00
         0.50229057542                   1
 s    1 1.00
          0.1796272342                   1
 p    5 1.00
          666.50423284  0.0033502508198275
           157.6424169   0.026763970407523
          50.262520978      0.123626823608
          18.536078105    0.35845787918981
          7.2940532777    0.61677296353714
 p    1 1.00
          2.9433248995                   1
 p    1 1.00
          1.0404970818                   1
 p    1 1.00
          0.3845641508                   1
 p    1 1.00
         0.13069642732                   1
 d    2 1.00
                  4.61    0.18265835045336
                 1.011    0.91329175226681
 d    1 1.00
                 0.339                   1
 f    1 1.00
                 0.706                   1

9 0
 s    7 1.00
          69507.990945  0.00051457389646325
           10426.15688  0.0039781344806745
          2373.2334061   0.020456178670619
          671.56420071   0.080148102887582
           218.4199979    0.23454770317658
          77.572249714    0.44543368582255
          28.888815277    0.35466842499038
 s    3 1.00
          127.10527185    0.11293688054705
          39.339582961     0.4837351421006
          7.6740679989     -1.229229738981
 s    2 1.00
           3.874562763    0.67296821635762
          1.8385832573    0.34956051409054
 s    1 1.00
         0.50229057542                   1
 s    1 1.00
          0.1796272342                   1
 p    5 1.00
          666.50423284  0.0033502508198275
           157.6424169   0.026763970407523
          50.262520978      0.123626823608
          18.536078105    0.35845787918981
          7.2940532777    0.61677296353714
 p    1 1.00
          2.9433248995                   1
 p    1 1.00
          1.0404970818                   1
 p    1 1.00
          0.3845641508                   1
 p    1 1.00
         0.13069642732                   1
 d    2 1.00
                  4.61    0.18265835045336
                 1.011    0.91329175226681
 d    1 1.00
                 0.339                   1
 f    1 1.00
                 0.706                   1

[5d]
[7f]
[9g]

[MO]
 Sym= A
 Ene=               0
 Spin= Alpha
 Occup=    1.00000
   1    1.7546237541748e-07
   2    -5.4181001362599e-07
   3    2.3172021035576e-06
   4    2.0250803128549e-06
   5    -1.5496008088078e-05
   6    3.9511415411739e-07
   7    -0.011337380906572
   8    -0.0043612638353617
   9    -1.3741621407816e-06
  10     0.037042111883484
  11     0.014110467103483
  12    6.521696055608e-06
  13     0.045521623349845
  14      0.01764611463072
  15      -0.1227829479325
  16      0.07570374923189
  17    -0.0041893285495324
  18    -0.034047218851055
  19     0.054546331539888
  20    -0.002460180551879
  21    -0.092362423920866
  22    -0.024296561253698
  23    -0.0024163994442906
  24    -0.0034460899449449
  25    -0.00048400180811317
  26    0.0018758238642383
  27    -0.00033474188588571
  28    -0.0014157561266468
  29    0.0003640946304517
  30    -3.96784708488e-08
  31    0.00043259131341529
  32    1.802404129622e-07
  33    0.00047048262741444
  34    2.1617555772979e-05
  35    -5.4186856584291e-07
  36    -1.2358322861173e-05
  37     0.007135376090369
  38    -2.8960243442102e-07
  39    -0.0057790336765992
  40    -1.2879858505234e-08
  41    -0.022405528199022
  42    -0.018777252194281
  43    1.8125121005168e-06
  44    -0.0053414774933871
  45    0.0018327797742744
  46    -0.0080925801204933
  47    -0.0062158981538732
  48    0.0025969488068356
  49    -0.00036754629642703
  50    0.0014972752843594
  51    -0.00038474326364885
  52    0.00058110044893729
  53    -0.00033449117030462
  54    -0.0026610795229199
  55    -0.00019426024687141
  56    -0.0019773426469696
  57    -0.0027077614110977
  58    0.00051056554885829
  59    0.00033183752927614
  60    -1.3113214284864e-06
  61    -0.010699317855441
  62    -0.00042842272686765
  63    -0.042121705513249
  64    -1.8239270307908e-06
  65    -0.00078169337872043
  66    0.0022025835095653
  67    0.0019409875126546
  68    -0.00036183898046785
  69    -0.026887750998169
  70    -3.265679023436e-05
  71    -0.00041060185279508
  72    -0.00080547358434568
  73    -6.1286383625606e-05
  74    0.0052694889851403
  75    -0.0003288526542929
  76     0.005140030385757
  77    -0.050537306597827
  78     -0.18746809378387
  79     -0.11705608206679
  80    0.0070113965947452
  81    0.0073269817639622
  82    -0.0049387316459314
  83    -0.0026539483058664
  84    0.0049069715721319
  85    -0.013950874820234
  86    -0.00049529786977292
  87    0.0019011861204806
  88    0.0001836671938986
  89    -0.00051603139523519
  90    0.0003196725819113
  91     0.061232014151664
  92       0.2295836974061
  93      0.14392965918038
  94    -0.0089509952944054
  95    0.0030333649706364
  96     0.021666639630435
  97    0.0056491958079635
  98    -0.0045615608318611
  99    0.0094600672261337
 100    -0.0014842799837355
 101    -2.0747225583979e-05
 102    0.0016590983007974
 103    -0.00097844604442917
 104    -0.00025378727570384
 105    -0.00049526371297504
 106    0.0015921634911248
 107    -0.0013948121601513
 108    0.0017685704762249
 109    -0.012042896397344
 110    0.0011882986013184
 111    0.0020367024711705
 112    0.0059184376602837
 113    -0.0082495263221867
 114    -0.046336240266469
 115      0.01048851757389
 116    -0.0028650883539039
 117    -0.00067942431930131
 118    -0.050693133060052
 119    -0.0045185145683218
 120     -0.20063123376977
 121     0.058377001516989
 122     -0.18117693982486
 123      0.13215874387494
 124      0.12260500514477
 125    -0.073694755551619
 126     -0.10657628018637
 127     -0.10849740971678
 128     0.066054947466057
 129    -0.0010084709735611
 130    0.0007496820543552
 131    -0.0014730619904086
 132    -7.0057741152456e-05
 133    -0.00018537098234692
 134    0.0024616585911309
 135    -0.011869540003704
 136     0.014531696802099
 137    -0.0058377499273301
 138    -0.0087195564645359
 139    0.00027934339743043
 140    0.0092542623714359
 141     0.012594785424549
 142    0.0039565320441322
 143    -7.5429476346203e-05
 144    -0.0016549855372921
 145    0.0011492996107391
 146    -0.008461886230147
 147    -0.029209597283834
 148     0.033732771648224
 149     0.007267439756416
 150    -0.016910262966729
 151    0.0046910740085454
 152     0.014944664855496
 153    0.0043558657578973
 154     0.014453385745954
 155    -0.0045294995566773
 156    -0.0043159959686013
 157    -0.0029022474282484
 158    -0.020808644098118
 159    0.0031678237119457
 160    -0.0035700698418613
 161    0.00030575455528242
 162    0.00087816792214429
 163    -0.0048110333760106
 164     0.017861116568159
 165    0.00027848411150049
 166    -0.0087442076760301
 167    -0.0049198747772271
 168      0.01363252924615
 169    0.0037359402296233
 170     -0.01146261468477
 171    -0.00062726708492757
 172    0.0021085844814429
 173    -0.00078495474347601
 174     0.002334234599356
 175    -0.0042908505771038
 176    -0.0025507738741616
 177    -0.0005294260934871
 178    -1.87801963097e-05
 179     0.004598914421867
 180    0.0020137637821112
 181    0.00099831359457402
 182    0.00012216995984448
 183    -0.00036713935111369
 184    -0.009642502789366
 185    -0.0086186394042878
 186    -0.00044330901001088
 187    -0.00023208480942054
 188    -0.00055859850270209
 189    0.0036768466030028
 190    1.800830279559e-05
 191    -0.0016333163108466
 192    -0.0012663655184915
 193    -5.2903012193462e-05
 194    -0.00028624042127625
 195    -0.00013403889013462
 196    -0.0059362199081769
 197    -0.0089504225147291
 198    -8.2660462775496e-05
 199    -0.00026546588312361
 200    -9.1948966905858e-05
 201    -0.004361462037695
 202    -0.0049195712136811
 203    -0.00019611985729389
 204    -0.00031201139788145
 205    -5.451023410356e-05
 206    -0.0097500184692073
 207    -0.0069911500880477
 208    -0.00027827685905154
 209    -0.00069123440989267
 210    0.00018941671355172
 211     0.064745294096662
 212      0.25507612825848
 213      0.22769237903194
 214     -0.16676147302959
 215      0.14650770756915
 216     -0.13129071033484
 217     -0.09359123501639
 218      0.13471399444279
 219    -0.00090038050779559
 220      0.11044527218444
 221    -0.00033812963937948
 222    -0.00043869953265156
 223    -0.00010602407098879
 224    -0.014051313835142
 225    0.00015701584941202
 226    -0.024907441804057
 227     0.039075680466889
 228     0.034604554942814
 229    -0.028136142631202
 230     -0.04650787720157
 231     0.018365432648721
 232    -0.054444149242751
 233    -0.033503762774659
 234    -0.00072241634435911
 235    0.0013690482683396
 236    -0.000157219783182
 237    -0.00011128709410815
 238    -0.00037892298110362
 239    0.0031394419368333
 240    -0.012403255826479
 241    0.0055530794352019
 242    -0.010759052110049
 243    -0.0034998453665192
 244    -0.0079024299203704
 245    0.00053636253735765
 246    0.0038430750765468
 247    0.0022840925290259
 248    -0.0011276760445124
 249    -0.00026086936332004
 250    0.00050791705630669
 251    -0.0020125354199651
 252    -0.0014467692041205
 253    -0.029698389186929
 254    0.0099506440168157
 255     0.025887351359284
 256    -0.011308685493451
 257    -0.007200488449757
 258    -3.5661775492003e-05
 259     0.017608456568491
 260    -0.016543660139149
 261    0.00091149033836235
 262    -0.012081512416473
 263    0.0041552982228267
 264    0.0097173571334496
 265    -0.0057383997018469
 266     0.035424364235279
 267    0.0031900067626093
 268     0.044423605116635
 269    0.00086625417454584
 270     0.026390290895535
 271    -0.023915235418239
 272      0.01250192783915
 273    -0.024533424453356
 274     0.026220170326674
 275    -0.012943525430659
 276    -0.00035370478234923
 277    -0.00024073166007328
 278    0.00012251306728746
 279    0.00038945501470766
 280    -7.5063318016318e-05
 281    -0.012480645709722
 282    -0.044961917253103
 283     -0.05446547772905
 284    -0.034795015979054
 285    -0.026092066411715
 286    -0.021891556742761
 287     0.032722896027982
 288     0.027916398462622
 289     0.021496387334191
 290    0.0002165388946588
 291    -0.00032863637877361
 292    -0.00029055715853213
 293    -6.7977335082428e-06
 294    -0.00034452338809895
 295     0.010037758004576
 296    0.0084035886868406
 297    0.0095364980154432
 298    0.0047783124197566
 299    0.0027627871364833
 300    0.0057400436088028
 301    0.0002731073873108
 302    -0.0027565835150803
 303    -0.00016532447459083
 304    -0.0081906813606636
 305    2.6157938243186e-05
 306    -0.0065744494915023
 307    3.8442234373549e-05
 308    0.00029321299660819
 309    -0.0031753243383644
 310     0.014723294191032
 311    -0.016797691578707
 312    0.0067935251157447
 313    -0.0097179106709705
 314    -0.002819791856155
 315    -0.010756219912798
 316     0.017984939489837
 317     0.010710007137633
 318    -0.0024822076855014
 319    0.0052804873544846
 320    0.00013336562169926
 321    -0.00056975058398953
 322    -0.0058605910459578
 323    -0.0040166859682975
 324     0.017211022890593
 325    -0.023419517775058
 326     0.010482039196376
 327    -0.014161322657464
 328     0.015686557390114
 329    -0.010952031137065
 330    -0.0046769831264484
 331    -0.0087080201039588
 332    -0.0055383016763679
 333    0.00059487767689942
 334    -0.0012773264824818
 335    0.0023800168899907
 336    -0.0046422764626978
 337    -0.00095024985209589
 338    -0.0065512206180464
 339    0.0022776689598469
 340    -0.0021281783978639
 341    -0.0028466325483271
 342    0.0014903541584924
 343    0.00071105671269918
 Sym= A
 Ene=               1
 Spin= Alpha
 Occup=    1.00000
   1    3.3215155338364e-08
   2    2.0719608121348e-08
   3    1.1258215404115e-06
   4    4.5061123083963e-06
   5    -9.3991212115456e-09
   6    -3.4480174922097e-06
   7    -0.004362127925386
   8     0.011332915538582
   9    1.2122016693145e-05
  10     0.014113285889697
  11    -0.037026935692581
  12    -1.5437432795781e-05
  13     0.017653850574533
  14    -0.045529824487777
  15    -0.034043402813026
  16    0.0048386502739931
  17     0.065561054930513
  18      0.12279676781745
  19    0.0028402131443552
  20     0.047238611879388
  21    -0.024288231559122
  22     0.092360657196602
  23     0.037855242835496
  24    -0.00059474620336965
  25    -0.00013655024231805
  26    0.00052914074178342
  27    0.0011866591407014
  28     0.027271456647668
  29    -0.0021103631301469
  30    -7.8545858773893e-07
  31    -0.0015329355191435
  32    2.4722001885677e-06
  33    -0.0027252429068367
  34    7.744024582332e-06
  35    -1.8567754755663e-06
  36    -6.8436296396559e-06
  37    0.0018349497231899
  38    -1.0262011133983e-05
  39     0.022393728659063
  40    1.0867043759773e-05
  41    -0.0057862773813233
  42    -0.0053403019935214
  43    6.4056579363792e-06
  44     0.018777206817345
  45    -0.0071318886891513
  46    -0.00037106041724025
  47    -0.0029998755508406
  48    -0.0053830196778702
  49    0.0080930765452702
  50    -0.003106926773099
  51    -0.0026626222501509
  52    0.00038975285447159
  53    0.00050289830589669
  54    0.00039002363281284
  55    0.00028996234597164
  56    -0.00052473283852921
  57    2.0808269243911e-06
  58    0.00013549604130682
  59    -0.0012505161590188
  60    -0.0016582073404533
  61     0.064532315074691
  62    0.0016141570483736
  63      0.24077160686501
  64    -0.0021404042223438
  65    -0.00025347967349319
  66    -0.011452210035657
  67    -0.0092202578498273
  68    0.0032789197572357
  69      0.15068331298073
  70    0.00079742664032628
  71    0.0021529103263108
  72    -0.00033787848334768
  73    0.00023155572494069
  74     -0.01603740255226
  75     0.001049321302374
  76    -0.014079028970638
  77     -0.04153284325675
  78     -0.15687435226356
  79    -0.098637323078663
  80    0.0062912645673347
  81    0.0068834074866177
  82    -0.0033420756247033
  83    -0.001942809531264
  84    0.0051249956707717
  85    -0.016239095625932
  86    0.0001173332040035
  87    0.0016360415130251
  88    0.00038380521456532
  89    0.00054279794659604
  90    0.00023841017050546
  91    -0.022998784082479
  92    -0.083909414093901
  93    -0.052046886662531
  94    0.0029270152289351
  95    -0.0013317178524637
  96    -0.0042727401559579
  97    -0.0012115704810743
  98    0.00052718508678764
  99    -0.0037096417679374
 100     0.000523190159991
 101    0.00078158830295151
 102    -0.00045697294521374
 103    0.00047812022494993
 104    -0.00037970159657174
 105    -0.0010808897110754
 106    -0.0079835652073004
 107    -0.006011440016256
 108    -0.0078337365826467
 109     0.060469362850722
 110    0.00011375187363373
 111    0.0020212122326843
 112    0.0018144437336926
 113    -0.0073772087420501
 114     -0.04065694583393
 115    -0.0033690628720779
 116    0.0010765981196504
 117    0.00096798918075108
 118    -0.045493002747895
 119    0.0042267384366033
 120     -0.17869333619284
 121    -0.019800157174875
 122     -0.15831953901089
 123      0.11625485889531
 124      0.12423700727826
 125    -0.040205930789443
 126    -0.094029888438195
 127      -0.1067495614659
 128     0.039111619109348
 129    -0.00027664444609821
 130    -3.1860355366551e-05
 131    0.00064186982340396
 132    0.00074528905766655
 133    0.00042135506737998
 134    0.0022430278576595
 135    -0.010146634706566
 136     0.011045226696097
 137    -0.004484352981728
 138    -0.0033877575643922
 139    0.0079353320170076
 140    0.0070804286994019
 141     0.013847672773287
 142    0.0035777514100468
 143    0.00024244435217863
 144    -0.0010502891733383
 145    0.0014857355065426
 146     -0.00689915829017
 147    -0.013032411063289
 148     0.014812357241318
 149    0.0041204613934092
 150    -0.0017333112874263
 151    0.0042633051501238
 152     0.008957239011405
 153    0.0076747416385344
 154     0.010744086588278
 155    -0.0025969492675782
 156    0.0068178592006357
 157    -0.0026648286521014
 158    -0.0066013001836471
 159    0.0024968408812567
 160    -0.0021636937653368
 161    -0.00034948441528787
 162    0.0041305606402207
 163    -0.017092148078435
 164     0.016713528234774
 165     -0.01225612974844
 166    -0.010924714066477
 167    0.0052184779012205
 168    0.0084883055179682
 169    0.0022232773287504
 170    -0.011778523752109
 171    -0.0017235684353293
 172    0.0016513358178663
 173    0.00033207812163936
 174    0.0036372364646226
 175    -0.0040323546691072
 176    0.0073565843617579
 177    0.0090107300594447
 178    -0.00020217709227866
 179    -0.0026725215192643
 180    -0.00096375078742502
 181    -8.12850409514e-05
 182    0.0003212236615204
 183    -7.1635245161717e-05
 184    -0.0097725051791476
 185    -0.0078933114332112
 186    0.00014095463003505
 187    -0.00022715445440235
 188    -0.00079860129057977
 189    0.0016869412371564
 190    0.00020328491024338
 191    -0.0010672047174244
 192    -0.00027015391941336
 193    0.00027674667524421
 194    -0.00022130182025013
 195    -0.00013706454940742
 196    -0.0096572973378999
 197    -0.0085426162950954
 198    -0.00032716346730109
 199    -0.00074948978100697
 200    0.00041810932776531
 201    -0.0033830476334807
 202    -0.0065788532461575
 203    -0.00054752478612266
 204    -0.00039732219703474
 205    -0.00021572941023497
 206    -0.0045054538802797
 207    -0.0058614538180365
 208    5.1047200031119e-05
 209    -0.00022188063488721
 210    7.8519081971718e-05
 211    -0.021155214147147
 212    -0.084403297791615
 213    -0.077767774211838
 214     0.056323014008897
 215     -0.05989231375121
 216     0.052901337523939
 217     0.016322927215399
 218    -0.045289618741587
 219    -7.9415050502422e-06
 220    -0.016301543014828
 221    0.00085340103396651
 222    0.0010931719623206
 223    0.00093992636488813
 224     0.066647040650957
 225    0.0010251105559239
 226     0.011468717523365
 227     -0.18770681399565
 228     -0.17258167594728
 229      0.13930889069092
 230      0.23607874050305
 231    -0.0071697254315612
 232      0.26311497192365
 233      0.16597265492016
 234    -0.00023566458546175
 235    0.0010111731400419
 236    0.0003895394498753
 237    0.0010334436964113
 238    -0.00037642432029157
 239    -0.0028237701444133
 240     0.012709678190096
 241    -0.023842108602475
 242    0.0058913264716787
 243    -0.0079446066980769
 244     0.010470943878723
 245    -0.016040790789669
 246    -0.011507320474997
 247     -0.01166887230732
 248    0.0026241300372465
 249     0.004192799063331
 250    -0.0017987599414643
 251    0.0031360388796119
 252    0.0043971094437711
 253     0.021830416459826
 254     -0.01377780288822
 255    -0.018778505161158
 256    0.0011669436158917
 257    0.0042326513319107