[Molden Format]
made by pyscf v[2.2.1]
[Atoms] (AU)
Fe   1   26    10.35569916261654     2.17318504324982   -15.17450078025744
S   2   16     7.65339080448850    -1.15273293598469   -16.53510358994429
S   3   16    14.15404867299231     0.79368497231733   -17.08312416606816
Fe   4   26    11.41394579237297    -2.30546587196938   -18.19806257956155
S   5   16    10.33680190137089     2.36215765570633   -10.54467177507304
S   6   16     8.74943195673624     6.19830168857340   -16.57289811243559
S   7   16    10.86592521624911    -2.83458918684759   -22.77119980100900
S   8   16    12.96352121451632    -6.44396608476686   -16.74297346364645
C   9   6    10.41239094635349     8.40928125431453   -14.19184319548361
H   10   1    12.26432254842725     9.12737718164925   -14.96663090655529
H   11   1     9.20296622663185    10.07224024393178   -13.70051440309670
H   12   1    10.80923343251215     7.25654831832984   -12.45329516088376
C   13   6     6.80301404843422     3.21253441176060   -10.46908273009044
H   14   1     5.68807563494084     1.51178089965205   -10.99820604496866
H   15   1     6.19830168857340     3.89283581660403    -8.54156208303408
H   16   1     6.46286334601251     4.68652078892135   -11.92417184600554
C   17   6     9.84547310898397    -7.97464424566456   -17.87680913838549
H   18   1     9.63760323528181    -7.57780175950590   -19.93661061416140
H   19   1     9.84547310898397   -10.05334298268613   -17.49886391347247
H   20   1     8.25810316434932    -7.02978118338203   -16.87525429236600
C   21   6    14.41861033043142    -3.49599333044536   -23.13024776467636
H   22   1    14.92883638406399    -3.89283581660403   -25.15225471796098
H   23   1    15.49575422143351    -1.81413707958246   -22.41215183734163
H   24   1    14.90993912281834    -5.14005505881697   -21.90192578370907
[GTO]
1 0
 s    6 1.00
          60923.640643  0.0017552243692958
          9147.8893982   0.013449023284001
          2081.3505927   0.066678874640978
          587.55977067    0.23176348548844
           191.0904399    0.46945550248188
          65.732730112     0.3596824938678
 s    3 1.00
          127.25891928   -0.10723431835929
           14.83091301    0.62971616328466
          6.0653307408    0.44472317896179
 s    3 1.00
           10.44994371   -0.21694289195548
          1.7245228003    0.69457867408393
         0.71772177325    0.43298308896347
 s    1 1.00
        0.091449828308                   1
 s    1 1.00
        0.033706691021                   1
 p    5 1.00
          773.43750995  0.0091440529992506
          182.15149714   0.067887577136571
          57.547272758    0.26167978878504
          20.614988935    0.51088040113251
           7.634855789    0.33235475570224
 p    3 1.00
           3.871932799    0.33193859098144
          1.4924724132     0.5553666555499
         0.56061284958    0.23106034201617
 p    1 1.00
              0.134915                   1
 d    4 1.00
          38.968133419   0.033335938558743
          10.800067078    0.17766212505983
          3.6136457999      0.441281781625
          1.2129967888    0.57089200490673
 d    1 1.00
          0.3652439317                   1
 f    1 1.00
                 1.598                   1

2 0
 s    5 1.00
           9184.930301  -0.0054729466134731
          1381.5105503  -0.040954402155135
           313.8714758   -0.18475828956188
          88.053870623   -0.47567280643953
          27.039914905   -0.43495153584169
 s    3 1.00
          45.648731303  -0.091904045808942
          4.9664522326    0.55698777214497
          2.0116242047     0.5111546829846
 s    1 1.00
         0.35661077013                   1
 s    1 1.00
         0.13507221477                   1
 p    5 1.00
          261.98233439  -0.009183054659266
          61.306894736   -0.06590222652599
          19.103729887   -0.24587784518735
          6.6567720378    -0.4823147107602
          2.3959635161   -0.38956314351423
 p    1 1.00
         0.61776161679                   1
 p    1 1.00
         0.16993376871                   1
 d    1 1.00
                  0.55                   1

3 0
 s    5 1.00
           9184.930301  -0.0054729466134731
          1381.5105503  -0.040954402155135
           313.8714758   -0.18475828956188
          88.053870623   -0.47567280643953
          27.039914905   -0.43495153584169
 s    3 1.00
          45.648731303  -0.091904045808942
          4.9664522326    0.55698777214497
          2.0116242047     0.5111546829846
 s    1 1.00
         0.35661077013                   1
 s    1 1.00
         0.13507221477                   1
 p    5 1.00
          261.98233439  -0.009183054659266
          61.306894736   -0.06590222652599
          19.103729887   -0.24587784518735
          6.6567720378    -0.4823147107602
          2.3959635161   -0.38956314351423
 p    1 1.00
         0.61776161679                   1
 p    1 1.00
         0.16993376871                   1
 d    1 1.00
                  0.55                   1

4 0
 s    6 1.00
          60923.640643  0.0017552243692958
          9147.8893982   0.013449023284001
          2081.3505927   0.066678874640978
          587.55977067    0.23176348548844
           191.0904399    0.46945550248188
          65.732730112     0.3596824938678
 s    3 1.00
          127.25891928   -0.10723431835929
           14.83091301    0.62971616328466
          6.0653307408    0.44472317896179
 s    3 1.00
           10.44994371   -0.21694289195548
          1.7245228003    0.69457867408393
         0.71772177325    0.43298308896347
 s    1 1.00
        0.091449828308                   1
 s    1 1.00
        0.033706691021                   1
 p    5 1.00
          773.43750995  0.0091440529992506
          182.15149714   0.067887577136571
          57.547272758    0.26167978878504
          20.614988935    0.51088040113251
           7.634855789    0.33235475570224
 p    3 1.00
           3.871932799    0.33193859098144
          1.4924724132     0.5553666555499
         0.56061284958    0.23106034201617
 p    1 1.00
              0.134915                   1
 d    4 1.00
          38.968133419   0.033335938558743
          10.800067078    0.17766212505983
          3.6136457999      0.441281781625
          1.2129967888    0.57089200490673
 d    1 1.00
          0.3652439317                   1
 f    1 1.00
                 1.598                   1

5 0
 s    5 1.00
           9184.930301  -0.0054729466134731
          1381.5105503  -0.040954402155135
           313.8714758   -0.18475828956188
          88.053870623   -0.47567280643953
          27.039914905   -0.43495153584169
 s    3 1.00
          45.648731303  -0.091904045808942
          4.9664522326    0.55698777214497
          2.0116242047     0.5111546829846
 s    1 1.00
         0.35661077013                   1
 s    1 1.00
         0.13507221477                   1
 p    5 1.00
          261.98233439  -0.009183054659266
          61.306894736   -0.06590222652599
          19.103729887   -0.24587784518735
          6.6567720378    -0.4823147107602
          2.3959635161   -0.38956314351423
 p    1 1.00
         0.61776161679                   1
 p    1 1.00
         0.16993376871                   1
 d    1 1.00
                  0.55                   1

6 0
 s    5 1.00
           9184.930301  -0.0054729466134731
          1381.5105503  -0.040954402155135
           313.8714758   -0.18475828956188
          88.053870623   -0.47567280643953
          27.039914905   -0.43495153584169
 s    3 1.00
          45.648731303  -0.091904045808942
          4.9664522326    0.55698777214497
          2.0116242047     0.5111546829846
 s    1 1.00
         0.35661077013                   1
 s    1 1.00
         0.13507221477                   1
 p    5 1.00
          261.98233439  -0.009183054659266
          61.306894736   -0.06590222652599
          19.103729887   -0.24587784518735
          6.6567720378    -0.4823147107602
          2.3959635161   -0.38956314351423
 p    1 1.00
         0.61776161679                   1
 p    1 1.00
         0.16993376871                   1
 d    1 1.00
                  0.55                   1

7 0
 s    5 1.00
           9184.930301  -0.0054729466134731
          1381.5105503  -0.040954402155135
           313.8714758   -0.18475828956188
          88.053870623   -0.47567280643953
          27.039914905   -0.43495153584169
 s    3 1.00
          45.648731303  -0.091904045808942
          4.9664522326    0.55698777214497
          2.0116242047     0.5111546829846
 s    1 1.00
         0.35661077013                   1
 s    1 1.00
         0.13507221477                   1
 p    5 1.00
          261.98233439  -0.009183054659266
          61.306894736   -0.06590222652599
          19.103729887   -0.24587784518735
          6.6567720378    -0.4823147107602
          2.3959635161   -0.38956314351423
 p    1 1.00
         0.61776161679                   1
 p    1 1.00
         0.16993376871                   1
 d    1 1.00
                  0.55                   1

8 0
 s    5 1.00
           9184.930301  -0.0054729466134731
          1381.5105503  -0.040954402155135
           313.8714758   -0.18475828956188
          88.053870623   -0.47567280643953
          27.039914905   -0.43495153584169
 s    3 1.00
          45.648731303  -0.091904045808942
          4.9664522326    0.55698777214497
          2.0116242047     0.5111546829846
 s    1 1.00
         0.35661077013                   1
 s    1 1.00
         0.13507221477                   1
 p    5 1.00
          261.98233439  -0.009183054659266
          61.306894736   -0.06590222652599
          19.103729887   -0.24587784518735
          6.6567720378    -0.4823147107602
          2.3959635161   -0.38956314351423
 p    1 1.00
         0.61776161679                   1
 p    1 1.00
         0.16993376871                   1
 d    1 1.00
                  0.55                   1

9 0
 s    5 1.00
          1238.4016938  0.0055173650481097
          186.29004992   0.041088828555946
          42.251176346     0.1822538212649
          11.676557932    0.46828459437429
          3.5930506482    0.44575817336002
 s    1 1.00
         0.40245147363                   1
 s    1 1.00
         0.13090182668                   1
 p    3 1.00
          9.4680970621   0.056888332011037
          2.0103545142    0.31294059336471
         0.54771004707    0.76065016509135
 p    1 1.00
         0.15268613795                   1
 d    1 1.00
                   0.8                   1

10 0
 s    3 1.00
             13.010701   0.033485484812989
             1.9622572    0.23472187088125
            0.44453796    0.81377028525955
 s    1 1.00
            0.12194962                   1
 p    1 1.00
                   0.8                   1

11 0
 s    3 1.00
             13.010701   0.033485484812989
             1.9622572    0.23472187088125
            0.44453796    0.81377028525955
 s    1 1.00
            0.12194962                   1
 p    1 1.00
                   0.8                   1

12 0
 s    3 1.00
             13.010701   0.033485484812989
             1.9622572    0.23472187088125
            0.44453796    0.81377028525955
 s    1 1.00
            0.12194962                   1
 p    1 1.00
                   0.8                   1

13 0
 s    5 1.00
          1238.4016938  0.0055173650481097
          186.29004992   0.041088828555946
          42.251176346     0.1822538212649
          11.676557932    0.46828459437429
          3.5930506482    0.44575817336002
 s    1 1.00
         0.40245147363                   1
 s    1 1.00
         0.13090182668                   1
 p    3 1.00
          9.4680970621   0.056888332011037
          2.0103545142    0.31294059336471
         0.54771004707    0.76065016509135
 p    1 1.00
         0.15268613795                   1
 d    1 1.00
                   0.8                   1

14 0
 s    3 1.00
             13.010701   0.033485484812989
             1.9622572    0.23472187088125
            0.44453796    0.81377028525955
 s    1 1.00
            0.12194962                   1
 p    1 1.00
                   0.8                   1

15 0
 s    3 1.00
             13.010701   0.033485484812989
             1.9622572    0.23472187088125
            0.44453796    0.81377028525955
 s    1 1.00
            0.12194962                   1
 p    1 1.00
                   0.8                   1

16 0
 s    3 1.00
             13.010701   0.033485484812989
             1.9622572    0.23472187088125
            0.44453796    0.81377028525955
 s    1 1.00
            0.12194962                   1
 p    1 1.00
                   0.8                   1

17 0
 s    5 1.00
          1238.4016938  0.0055173650481097
          186.29004992   0.041088828555946
          42.251176346     0.1822538212649
          11.676557932    0.46828459437429
          3.5930506482    0.44575817336002
 s    1 1.00
         0.40245147363                   1
 s    1 1.00
         0.13090182668                   1
 p    3 1.00
          9.4680970621   0.056888332011037
          2.0103545142    0.31294059336471
         0.54771004707    0.76065016509135
 p    1 1.00
         0.15268613795                   1
 d    1 1.00
                   0.8                   1

18 0
 s    3 1.00
             13.010701   0.033485484812989
             1.9622572    0.23472187088125
            0.44453796    0.81377028525955
 s    1 1.00
            0.12194962                   1
 p    1 1.00
                   0.8                   1

19 0
 s    3 1.00
             13.010701   0.033485484812989
             1.9622572    0.23472187088125
            0.44453796    0.81377028525955
 s    1 1.00
            0.12194962                   1
 p    1 1.00
                   0.8                   1

20 0
 s    3 1.00
             13.010701   0.033485484812989
             1.9622572    0.23472187088125
            0.44453796    0.81377028525955
 s    1 1.00
            0.12194962                   1
 p    1 1.00
                   0.8                   1

21 0
 s    5 1.00
          1238.4016938  0.0055173650481097
          186.29004992   0.041088828555946
          42.251176346     0.1822538212649
          11.676557932    0.46828459437429
          3.5930506482    0.44575817336002
 s    1 1.00
         0.40245147363                   1
 s    1 1.00
         0.13090182668                   1
 p    3 1.00
          9.4680970621   0.056888332011037
          2.0103545142    0.31294059336471
         0.54771004707    0.76065016509135
 p    1 1.00
         0.15268613795                   1
 d    1 1.00
                   0.8                   1

22 0
 s    3 1.00
             13.010701   0.033485484812989
             1.9622572    0.23472187088125
            0.44453796    0.81377028525955
 s    1 1.00
            0.12194962                   1
 p    1 1.00
                   0.8                   1

23 0
 s    3 1.00
             13.010701   0.033485484812989
             1.9622572    0.23472187088125
            0.44453796    0.81377028525955
 s    1 1.00
            0.12194962                   1
 p    1 1.00
                   0.8                   1

24 0
 s    3 1.00
             13.010701   0.033485484812989
             1.9622572    0.23472187088125
            0.44453796    0.81377028525955
 s    1 1.00
            0.12194962                   1
 p    1 1.00
                   0.8                   1

[5d]
[7f]
[9g]

[MO]
 Sym= A
 Ene=               0
 Spin= Alpha
 Occup=    1.00000
   1    0.00074119445147851
   2    -0.0022081114438982
   3    0.0098448481838689
   4    -0.017668797141937
   5     0.010940341068808
   6    -0.00085103240408251
   7     0.001925739079846
   8    0.0016316945543416
   9    0.0026502146030843
  10    -0.0059665791600136
  11    -0.0050968993565474
  12    -0.0040246078293194
  13    0.0073300026747577
  14    0.0075620750607457
  15    -0.0028730245642336
  16     -0.60222728766258
  17      0.32759459194117
  18     -0.54103360547404
  19     0.096065843165126
  20    -0.0012730273068668
  21     -0.16208218951386
  22     0.089825473145285
  23     -0.14607749835738
  24     0.025129007898937
  25    1.9818510239326e-05
  26    -0.00029461508333147
  27    -0.00011388920806763
  28    -0.00017445585781762
  29    -0.00029300871505309
  30    -0.00017303888795455
  31    -0.0003485211084495
  32    -0.00037642832621743
  33    -0.0025916001912406
  34    0.0053446470328424
  35     0.005502616267103
  36    -0.017668522712403
  37     0.011551919921301
  38     -0.01103044376752
  39    -0.029917598386551
  40     0.019665499345032
  41    -0.018491069698803
  42    -0.046483679869676
  43     0.033698933187679
  44    -0.036246628149444
  45    0.0023717044327265
  46    0.0005708092596571
  47    -0.00032948185185427
  48    0.00012439537582216
  49    0.0022102341410138
  50    -0.00030878545826753
  51    -0.0021591025418924
  52    0.0049780614138263
  53    0.0050865965127931
  54     0.015955021021055
  55    0.00036158620967463
  56     0.016652529266687
  57     0.026956944820293
  58    0.00076209825437205
  59     0.028187879382268
  60     0.042806388833805
  61    -0.0035781427433001
  62     0.049531953135648
  63    -0.00099284366297999
  64    -0.00092807349722272
  65    -0.0024135907660606
  66    -0.00021198961454785
  67    -0.0015090258400482
  68    0.0015256781177293
  69    -0.0043660737898783
  70     0.021149344017253
  71    -0.038454338926592
  72     0.014828313035363
  73    0.00059773089530868
  74    -0.0025355655819673
  75    -0.0017741820277144
  76    -0.0019570529301315
  77    0.0082843753017021
  78    0.0057974294829528
  79    0.0031643419427353
  80    -0.012046274561432
  81    -0.0087846247713449
  82    0.00099566271037095
  83    0.0031366284107413
  84    -0.0038820282848039
  85    0.0021205323599664
  86    -0.00050765479728341
  87    0.0016613677144819
  88    0.0048378166605205
  89    -0.00059376446101725
  90    -0.00018847237283499
  91    -0.0034225167911643
  92    -5.1766076072949e-05
  93    0.00019437278653098
  94    0.00017768934350897
  95    -0.000352816644888
  96    -3.4019233674819e-05
  97    0.00034427427270647
  98    -0.0001066083491459
  99    -0.00069787409765846
 100    -0.0046087407624302
 101    0.0073836148617849
 102    0.0060808182173146
 103    0.0043673930555384
 104    -0.0083363865648231
 105    0.0010529250112771
 106    0.0077289399243853
 107    -0.014568112524051
 108    0.0015316909464511
 109    0.0075610229046344
 110    -0.022590426954935
 111    0.0051952900037082
 112    0.0015506363530076
 113    0.0026173030516368
 114    -0.001446160161504
 115    -0.0022033426021661
 116     0.001440191608935
 117    -0.00093044442522715
 118    -0.0061154614174527
 119    0.0089282157554033
 120    0.0095682937766926
 121    -0.0053293331320733
 122    -0.002024186005612
 123    -0.0051605852861319
 124    -0.009181317163504
 125    -0.0038932061629319
 126    -0.009034524700754
 127     -0.01353080212625
 128    -0.0015138910598356
 129    -0.011998115285527
 130    0.0010991154515141
 131    -0.00054493707113732
 132    -0.0036746655374138
 133    0.0025726923509413
 134    -0.0026602706455162
 135    -0.00020194018020849
 136    -0.0013586050366509
 137    0.0032483150169454
 138    -0.0023734456585042
 139    0.00059470089702972
 140    0.0012095081020086
 141    0.0025935387131815
 142     0.001394336251926
 143    0.0021652999389904
 144    0.0044616238470018
 145    -0.00021753964782257
 146    0.0036203234225026
 147    0.0081322170977102
 148    -1.0427404668534e-05
 149    -0.00021428608854464
 150    -0.00027105926972894
 151    0.00022731114864594
 152    -0.00020158643914435
 153    -0.0002261186356135
 154    -0.0015208766527287
 155    0.0035126822966526
 156    -0.0020397339904302
 157    -0.0014210988674665
 158    0.0026743966006997
 159    -5.9648900218296e-05
 160    -0.0027745827220137
 161    0.0045663249352392
 162    -8.1492881959231e-05
 163    -0.0027589905472796
 164    0.0087733252148375
 165    -6.6281684779558e-05
 166    7.0793473878394e-05
 167    0.00018796974163647
 168    -0.00019792124954826
 169    2.1321024263176e-05
 170    0.00037475455473377
 171    0.0034521343769869
 172    -0.0081079378188123
 173    -0.0043341294580532
 174    0.0071661246282734
 175     0.012563487111389
 176     0.010102981063735
 177    0.0067459763830709
 178    0.0054897538763213
 179    0.0087906887011741
 180    -0.00036739203390216
 181    -0.00062724845522496
 182    -0.00071114742802396
 183    7.6490690566573e-05
 184    -0.00053600145025931
 185    0.0033611567256615
 186    0.0016696326590814
 187    -8.7116690402348e-05
 188    0.00045504030053995
 189    0.00029707396605059
 190    0.0045467984508124
 191    0.0034319977131101
 192    0.00038714142730127
 193    9.3664423246546e-05
 194    6.8044372039946e-05
 195     -0.00056281736453
 196    -0.0027071744856546
 197    8.7399653583302e-05
 198    -0.00013790239888067
 199    6.2183482549478e-05
 200    0.0031461097130371
 201    -0.0066704905402791
 202    -0.0074454857248915
 203    -0.013871370189364
 204    0.0033648036940034
 205    0.0033269988299749
 206    -0.010010264577105
 207    0.00068965255353424
 208    0.00052394124026368
 209    0.0008286630674946
 210    -0.00039149242014905
 211    0.00020109544784191
 212    -0.00083723289283483
 213    -0.0001177889045864
 214    -0.00046269716991031
 215    -0.0022795697268304
 216    -0.0002697732573616
 217    2.9891765826587e-05
 218    0.00011331609253917
 219    0.0058016715630826
 220    0.0043891450573152
 221    -0.0002679754342492
 222    2.1732577113387e-05
 223    -0.0001483527159702
 224    0.00079499934451371
 225      0.00370511567354
 226    -2.0479024436425e-05
 227    -3.0196809654873e-05
 228    -8.7731367262291e-05
 229    -0.00062234763016867
 230    0.00073364632175271
 231    0.0097344173521029
 232    -0.00042050457644247
 233    0.0013926137605519
 234    0.0011468558553767
 235    -0.0022523562950783
 236    0.0007466331108338
 237    0.0014420944850179
 238    -2.7811637840574e-05
 239    -2.1931666774949e-05
 240    6.5336422579268e-05
 241    -7.5320470904868e-06
 242    0.00013574769466616
 243    -0.00026856067106626
 244    -0.0033238875308626
 245    4.3829492542087e-05
 246    9.3184522195099e-05
 247    -3.3618075305531e-05
 248    -0.00048961525626742
 249    -0.001988111642198
 250    -3.4759506712176e-05
 251    -5.6144274463761e-05
 252    3.1776516242354e-05
 253    0.00065504481070613
 254    -0.0080764319823476
 255    -0.00011269462602822
 256    -0.00023485404543622
 257    2.3170206493259e-05
 258    -0.00053794183059172
 259    0.00060824729764146
 260    0.0089955611750807
 261    -0.00037319748273382
 262    0.0013510376790613
 263    0.00070259029492191
 264    0.0011438297993492
 265    0.0016910002430811
 266    0.00021908438365847
 267    -4.9191749994767e-05
 268    -0.00013948487147241
 269    2.6230436282531e-05
 270    4.4816452534849e-05
 271    -4.4837618887024e-05
 272    -0.00035163819997612
 273    -0.0018575449141357
 274    4.6218423065813e-05
 275    1.2180625904013e-05
 276    -6.3225686288011e-05
 277    0.00049229998195873
 278    -0.0070576360131529
 279    0.00015049056741157
 280    -2.4479273123971e-06
 281    -0.00014761434692623
 282    -0.00025196056480692
 283    -0.0033477673493594
 284    -5.4535680571539e-05
 285    -1.1039308461921e-05
 286    9.6655666033033e-05
 Sym= A
 Ene=               1
 Spin= Alpha
 Occup=    1.00000
   1    -0.00056112243428304
   2    0.0016827012305706
   3    -0.0074080691332893
   4     0.013942288837574
   5    -0.018030090890448
   6    -0.00078177187610829
   7    1.9838069122364e-06
   8    -0.00016668464606609
   9    0.0024841873949061
  10    -8.4795067622509e-05
  11    0.00043923102209465
  12     -0.00525492898674
  13    0.0047640447090011
  14    0.0026054423768259
  15    -0.012031432286706
  16     -0.39538532834996
  17     -0.64329789417749
  18      0.12592639181562
  19      0.43037943272712
  20    -0.0028490659312072
  21     -0.10400814163999
  22     -0.17183041634286
  23     0.034848639015955
  24      0.11411717543429
  25    0.00022031162318909
  26    -0.00023751446994254
  27    -0.00011652759174689
  28    0.00027525336766804
  29    -0.00016094654645381
  30    -0.00024510363458172
  31    7.0264531752239e-05
  32    0.00052352072216071
  33    0.0035575625531336
  34    -0.0068739893316787
  35    -0.0053478886124448
  36     0.010760635542128
  37    0.0061550654460736
  38    -0.022033540321293
  39     0.018274410805756
  40     0.010096080024969
  41    -0.037190395222408
  42     0.026029218270839
  43     0.021012958998219
  44    -0.064499591485571
  45    0.0012486197480749
  46    -0.0022697237875155
  47    0.0019801088215453
  48    0.0010708468231393
  49    -0.00062146574995509
  50    0.00067792566595068
  51     0.004535362892196
  52    -0.0077744422569878
  53    -0.0062784940207386
  54    -0.0056356566016454
  55    -0.020369214806038
  56    0.0083147771084045
  57    -0.0095695181890266
  58    -0.034551761559782
  59     0.013807887714801
  60    -0.012434808801701
  61    -0.056271200494354
  62     0.028332562280017
  63    -0.0021490996397004
  64    0.00026370475313033
  65    0.00067770155037368
  66    -0.0023927513950203
  67    0.0011379273843713
  68    -0.0015959219584468
  69    0.0045543337300877
  70    -0.022179467325407
  71     0.037580444459775
  72    -0.0034332972364799
  73    -0.00063629550456187
  74    0.0028158800621111
  75    0.0016455157723003
  76     0.002081939191944
  77    -0.0092148406464453
  78    -0.005399718260188
  79    -0.0030457412543785
  80     0.015510509028577
  81    0.0088037840932713
  82    -0.0025604465009913
  83    4.6666833287584e-05
  84    0.0047526443564681
  85    -0.00031342937519116
  86    -0.0013294272794165
  87    -0.0037377319084988
  88    0.0018526874818531
  89    0.0031125698794105
  90     0.003888194492146
  91    -4.2303714390656e-05
  92    -1.2234965992957e-06
  93    0.00020769314482133
  94    -0.00010561525715657
  95    0.00026068966537077
  96    0.00022637227998573
  97    -0.0001716691257016
  98    0.00044112966512508
  99    -0.00042846776280988
 100    -0.0027434473726466
 101    0.0023916820012171
 102    0.0082535295858124
 103    0.0069851385357264
 104     0.019681107385723
 105    -0.0031424609261767
 106     0.011866033274728
 107     0.033939548762423
 108    -0.0054033366791277
 109     0.019759770245932
 110      0.05820745840397
 111    -0.0091864988621144
 112    0.00062850430615314
 113    0.0013404090629195
 114    0.0017916028357514
 115    -0.0013704930339819
 116    0.00031184287792699
 117    -7.5046486659664e-05
 118    -0.00042539071972728
 119    -0.0010094591594548
 120    0.0036590880000829
 121    -0.013058965045208
 122    -0.0034110298807082
 123     0.013963926054918
 124    -0.022445613454932
 125    -0.0056553835525486
 126     0.024171111750726
 127    -0.039053431979898
 128    -0.011305721642895
 129     0.040496679236447
 130    -0.00041736054839918
 131    -0.00050175848104073
 132    0.0013835711315778
 133    0.00020683186481867
 134    -0.0011334307685366
 135    0.00046670589138608
 136    0.0030816916827405
 137    -0.0048467605168855
 138    -0.0048583345733413
 139    0.00033183279197265
 140    -0.00075592651820794
 141    -0.0034243420773885
 142    0.0010172986479315
 143    -0.0013595623394374
 144    -0.0061111645236287
 145    -0.0023015411828085
 146    -0.0023788784634919
 147    -0.0098709893992746
 148    -0.00014460204608625
 149    -0.00075799157722729
 150    0.00035246253045722
 151    0.00037037480993135
 152    -0.00032358057172004
 153    0.0003931602421598
 154    0.0025913260856928
 155    -0.0040978229139928
 156    -0.0038054747560169
 157    0.00045252652822712
 158    -0.0031286478618777
 159    0.00070385083167925
 160    0.00045922277903574
 161    -0.0056646006189651
 162    0.0012009832504776
 163    0.0039295902238057
 164    -0.0081222314101746
 165    0.0021552307401057
 166    -0.00036694297646557
 167    8.3348735294809e-05
 168    0.00027241298207488
 169    -0.00021869922803873
 170    0.00063620528506036
 171    0.00021259916092975
 172    0.00046167498428929
 173     -0.01015092873085
 174    0.00079535737080398
 175    -2.1882775286039e-05
 176    -0.0050534910792764
 177    -0.0014906589166546
 178    0.0019595670414069
 179    -0.0064088153001289
 180    -0.00095937614922735
 181    7.240865684534e-05
 182    -0.00026592154045059
 183    0.00051418384173812
 184    0.00098145070077853
 185    0.0061813990015728
 186    0.0069960838730364
 187    -5.1323078358359e-05
 188    8.3587466301158e-05
 189    0.00022179968143202
 190    -0.0033592265508124
 191    -0.0013186935400086
 192    -0.00010111189872411
 193    2.1909393925731e-05
 194    -0.00020477030117453
 195    -0.0031187093478499
 196    0.0086672499289369
 197    9.1330550913845e-05
 198    -0.00020694939093955
 199    0.00028683847077509
 200    0.0015985365164554
 201    -0.0034166270777414
 202    -0.0055004862641016
 203    -0.0058014753931534
 204    -0.0035487838268724
 205    0.0031819778345622
 206    -0.0042604526362118
 207    -0.0050410330606359
 208    0.0020357197745629
 209    0.00014661091698463
 210    -0.0003077194538164
 211    0.00047919895204246
 212    0.0002884160994564
 213    0.0014790704393923
 214    0.0059520883527079
 215    0.0024674812479804
 216    -0.00031432722644923
 217    0.00033103978653105
 218    0.00036159382696804
 219    0.0016218399040857
 220    0.0022532019532193
 221    -7.0602952477136e-05
 222    -0.00018781845629592
 223    -3.9155982404275e-06
 224    -0.0058810864530446
 225    0.0035211958995537
 226    -2.1200961793781e-05
 227    0.00033005545725494
 228    -0.00041043040797265
 229    -0.0006192560612704
 230    0.00060118904172643
 231    0.0085215285341828
 232    0.0012364216601742