[Molden Format]
made by pyscf v[2.2.1]
[Atoms] (AU)
Fe   1   26    10.35569916261654     2.17318504324982   -15.17450078025744
S   2   16     7.65339080448850    -1.15273293598469   -16.53510358994429
S   3   16    14.15404867299231     0.79368497231733   -17.08312416606816
Fe   4   26    11.41394579237297    -2.30546587196938   -18.19806257956155
S   5   16    10.33680190137089     2.36215765570633   -10.54467177507304
S   6   16     8.74943195673624     6.19830168857340   -16.57289811243559
S   7   16    10.86592521624911    -2.83458918684759   -22.77119980100900
S   8   16    12.96352121451632    -6.44396608476686   -16.74297346364645
C   9   6    10.41239094635349     8.40928125431453   -14.19184319548361
H   10   1    12.26432254842725     9.12737718164925   -14.96663090655529
H   11   1     9.20296622663185    10.07224024393178   -13.70051440309670
H   12   1    10.80923343251215     7.25654831832984   -12.45329516088376
C   13   6     6.80301404843422     3.21253441176060   -10.46908273009044
H   14   1     5.68807563494084     1.51178089965205   -10.99820604496866
H   15   1     6.19830168857340     3.89283581660403    -8.54156208303408
H   16   1     6.46286334601251     4.68652078892135   -11.92417184600554
C   17   6     9.84547310898397    -7.97464424566456   -17.87680913838549
H   18   1     9.63760323528181    -7.57780175950590   -19.93661061416140
H   19   1     9.84547310898397   -10.05334298268613   -17.49886391347247
H   20   1     8.25810316434932    -7.02978118338203   -16.87525429236600
C   21   6    14.41861033043142    -3.49599333044536   -23.13024776467636
H   22   1    14.92883638406399    -3.89283581660403   -25.15225471796098
H   23   1    15.49575422143351    -1.81413707958246   -22.41215183734163
H   24   1    14.90993912281834    -5.14005505881697   -21.90192578370907
[GTO]
1 0
 s    6 1.00
          60923.640643  0.0017552243692958
          9147.8893982   0.013449023284001
          2081.3505927   0.066678874640978
          587.55977067    0.23176348548844
           191.0904399    0.46945550248188
          65.732730112     0.3596824938678
 s    3 1.00
          127.25891928   -0.10723431835929
           14.83091301    0.62971616328466
          6.0653307408    0.44472317896179
 s    3 1.00
           10.44994371   -0.21694289195548
          1.7245228003    0.69457867408393
         0.71772177325    0.43298308896347
 s    1 1.00
        0.091449828308                   1
 s    1 1.00
        0.033706691021                   1
 p    5 1.00
          773.43750995  0.0091440529992506
          182.15149714   0.067887577136571
          57.547272758    0.26167978878504
          20.614988935    0.51088040113251
           7.634855789    0.33235475570224
 p    3 1.00
           3.871932799    0.33193859098144
          1.4924724132     0.5553666555499
         0.56061284958    0.23106034201617
 p    1 1.00
              0.134915                   1
 d    4 1.00
          38.968133419   0.033335938558743
          10.800067078    0.17766212505983
          3.6136457999      0.441281781625
          1.2129967888    0.57089200490673
 d    1 1.00
          0.3652439317                   1
 f    1 1.00
                 1.598                   1

2 0
 s    5 1.00
           9184.930301  -0.0054729466134731
          1381.5105503  -0.040954402155135
           313.8714758   -0.18475828956188
          88.053870623   -0.47567280643953
          27.039914905   -0.43495153584169
 s    3 1.00
          45.648731303  -0.091904045808942
          4.9664522326    0.55698777214497
          2.0116242047     0.5111546829846
 s    1 1.00
         0.35661077013                   1
 s    1 1.00
         0.13507221477                   1
 p    5 1.00
          261.98233439  -0.009183054659266
          61.306894736   -0.06590222652599
          19.103729887   -0.24587784518735
          6.6567720378    -0.4823147107602
          2.3959635161   -0.38956314351423
 p    1 1.00
         0.61776161679                   1
 p    1 1.00
         0.16993376871                   1
 d    1 1.00
                  0.55                   1

3 0
 s    5 1.00
           9184.930301  -0.0054729466134731
          1381.5105503  -0.040954402155135
           313.8714758   -0.18475828956188
          88.053870623   -0.47567280643953
          27.039914905   -0.43495153584169
 s    3 1.00
          45.648731303  -0.091904045808942
          4.9664522326    0.55698777214497
          2.0116242047     0.5111546829846
 s    1 1.00
         0.35661077013                   1
 s    1 1.00
         0.13507221477                   1
 p    5 1.00
          261.98233439  -0.009183054659266
          61.306894736   -0.06590222652599
          19.103729887   -0.24587784518735
          6.6567720378    -0.4823147107602
          2.3959635161   -0.38956314351423
 p    1 1.00
         0.61776161679                   1
 p    1 1.00
         0.16993376871                   1
 d    1 1.00
                  0.55                   1

4 0
 s    6 1.00
          60923.640643  0.0017552243692958
          9147.8893982   0.013449023284001
          2081.3505927   0.066678874640978
          587.55977067    0.23176348548844
           191.0904399    0.46945550248188
          65.732730112     0.3596824938678
 s    3 1.00
          127.25891928   -0.10723431835929
           14.83091301    0.62971616328466
          6.0653307408    0.44472317896179
 s    3 1.00
           10.44994371   -0.21694289195548
          1.7245228003    0.69457867408393
         0.71772177325    0.43298308896347
 s    1 1.00
        0.091449828308                   1
 s    1 1.00
        0.033706691021                   1
 p    5 1.00
          773.43750995  0.0091440529992506
          182.15149714   0.067887577136571
          57.547272758    0.26167978878504
          20.614988935    0.51088040113251
           7.634855789    0.33235475570224
 p    3 1.00
           3.871932799    0.33193859098144
          1.4924724132     0.5553666555499
         0.56061284958    0.23106034201617
 p    1 1.00
              0.134915                   1
 d    4 1.00
          38.968133419   0.033335938558743
          10.800067078    0.17766212505983
          3.6136457999      0.441281781625
          1.2129967888    0.57089200490673
 d    1 1.00
          0.3652439317                   1
 f    1 1.00
                 1.598                   1

5 0
 s    5 1.00
           9184.930301  -0.0054729466134731
          1381.5105503  -0.040954402155135
           313.8714758   -0.18475828956188
          88.053870623   -0.47567280643953
          27.039914905   -0.43495153584169
 s    3 1.00
          45.648731303  -0.091904045808942
          4.9664522326    0.55698777214497
          2.0116242047     0.5111546829846
 s    1 1.00
         0.35661077013                   1
 s    1 1.00
         0.13507221477                   1
 p    5 1.00
          261.98233439  -0.009183054659266
          61.306894736   -0.06590222652599
          19.103729887   -0.24587784518735
          6.6567720378    -0.4823147107602
          2.3959635161   -0.38956314351423
 p    1 1.00
         0.61776161679                   1
 p    1 1.00
         0.16993376871                   1
 d    1 1.00
                  0.55                   1

6 0
 s    5 1.00
           9184.930301  -0.0054729466134731
          1381.5105503  -0.040954402155135
           313.8714758   -0.18475828956188
          88.053870623   -0.47567280643953
          27.039914905   -0.43495153584169
 s    3 1.00
          45.648731303  -0.091904045808942
          4.9664522326    0.55698777214497
          2.0116242047     0.5111546829846
 s    1 1.00
         0.35661077013                   1
 s    1 1.00
         0.13507221477                   1
 p    5 1.00
          261.98233439  -0.009183054659266
          61.306894736   -0.06590222652599
          19.103729887   -0.24587784518735
          6.6567720378    -0.4823147107602
          2.3959635161   -0.38956314351423
 p    1 1.00
         0.61776161679                   1
 p    1 1.00
         0.16993376871                   1
 d    1 1.00
                  0.55                   1

7 0
 s    5 1.00
           9184.930301  -0.0054729466134731
          1381.5105503  -0.040954402155135
           313.8714758   -0.18475828956188
          88.053870623   -0.47567280643953
          27.039914905   -0.43495153584169
 s    3 1.00
          45.648731303  -0.091904045808942
          4.9664522326    0.55698777214497
          2.0116242047     0.5111546829846
 s    1 1.00
         0.35661077013                   1
 s    1 1.00
         0.13507221477                   1
 p    5 1.00
          261.98233439  -0.009183054659266
          61.306894736   -0.06590222652599
          19.103729887   -0.24587784518735
          6.6567720378    -0.4823147107602
          2.3959635161   -0.38956314351423
 p    1 1.00
         0.61776161679                   1
 p    1 1.00
         0.16993376871                   1
 d    1 1.00
                  0.55                   1

8 0
 s    5 1.00
           9184.930301  -0.0054729466134731
          1381.5105503  -0.040954402155135
           313.8714758   -0.18475828956188
          88.053870623   -0.47567280643953
          27.039914905   -0.43495153584169
 s    3 1.00
          45.648731303  -0.091904045808942
          4.9664522326    0.55698777214497
          2.0116242047     0.5111546829846
 s    1 1.00
         0.35661077013                   1
 s    1 1.00
         0.13507221477                   1
 p    5 1.00
          261.98233439  -0.009183054659266
          61.306894736   -0.06590222652599
          19.103729887   -0.24587784518735
          6.6567720378    -0.4823147107602
          2.3959635161   -0.38956314351423
 p    1 1.00
         0.61776161679                   1
 p    1 1.00
         0.16993376871                   1
 d    1 1.00
                  0.55                   1

9 0
 s    5 1.00
          1238.4016938  0.0055173650481097
          186.29004992   0.041088828555946
          42.251176346     0.1822538212649
          11.676557932    0.46828459437429
          3.5930506482    0.44575817336002
 s    1 1.00
         0.40245147363                   1
 s    1 1.00
         0.13090182668                   1
 p    3 1.00
          9.4680970621   0.056888332011037
          2.0103545142    0.31294059336471
         0.54771004707    0.76065016509135
 p    1 1.00
         0.15268613795                   1
 d    1 1.00
                   0.8                   1

10 0
 s    3 1.00
             13.010701   0.033485484812989
             1.9622572    0.23472187088125
            0.44453796    0.81377028525955
 s    1 1.00
            0.12194962                   1
 p    1 1.00
                   0.8                   1

11 0
 s    3 1.00
             13.010701   0.033485484812989
             1.9622572    0.23472187088125
            0.44453796    0.81377028525955
 s    1 1.00
            0.12194962                   1
 p    1 1.00
                   0.8                   1

12 0
 s    3 1.00
             13.010701   0.033485484812989
             1.9622572    0.23472187088125
            0.44453796    0.81377028525955
 s    1 1.00
            0.12194962                   1
 p    1 1.00
                   0.8                   1

13 0
 s    5 1.00
          1238.4016938  0.0055173650481097
          186.29004992   0.041088828555946
          42.251176346     0.1822538212649
          11.676557932    0.46828459437429
          3.5930506482    0.44575817336002
 s    1 1.00
         0.40245147363                   1
 s    1 1.00
         0.13090182668                   1
 p    3 1.00
          9.4680970621   0.056888332011037
          2.0103545142    0.31294059336471
         0.54771004707    0.76065016509135
 p    1 1.00
         0.15268613795                   1
 d    1 1.00
                   0.8                   1

14 0
 s    3 1.00
             13.010701   0.033485484812989
             1.9622572    0.23472187088125
            0.44453796    0.81377028525955
 s    1 1.00
            0.12194962                   1
 p    1 1.00
                   0.8                   1

15 0
 s    3 1.00
             13.010701   0.033485484812989
             1.9622572    0.23472187088125
            0.44453796    0.81377028525955
 s    1 1.00
            0.12194962                   1
 p    1 1.00
                   0.8                   1

16 0
 s    3 1.00
             13.010701   0.033485484812989
             1.9622572    0.23472187088125
            0.44453796    0.81377028525955
 s    1 1.00
            0.12194962                   1
 p    1 1.00
                   0.8                   1

17 0
 s    5 1.00
          1238.4016938  0.0055173650481097
          186.29004992   0.041088828555946
          42.251176346     0.1822538212649
          11.676557932    0.46828459437429
          3.5930506482    0.44575817336002
 s    1 1.00
         0.40245147363                   1
 s    1 1.00
         0.13090182668                   1
 p    3 1.00
          9.4680970621   0.056888332011037
          2.0103545142    0.31294059336471
         0.54771004707    0.76065016509135
 p    1 1.00
         0.15268613795                   1
 d    1 1.00
                   0.8                   1

18 0
 s    3 1.00
             13.010701   0.033485484812989
             1.9622572    0.23472187088125
            0.44453796    0.81377028525955
 s    1 1.00
            0.12194962                   1
 p    1 1.00
                   0.8                   1

19 0
 s    3 1.00
             13.010701   0.033485484812989
             1.9622572    0.23472187088125
            0.44453796    0.81377028525955
 s    1 1.00
            0.12194962                   1
 p    1 1.00
                   0.8                   1

20 0
 s    3 1.00
             13.010701   0.033485484812989
             1.9622572    0.23472187088125
            0.44453796    0.81377028525955
 s    1 1.00
            0.12194962                   1
 p    1 1.00
                   0.8                   1

21 0
 s    5 1.00
          1238.4016938  0.0055173650481097
          186.29004992   0.041088828555946
          42.251176346     0.1822538212649
          11.676557932    0.46828459437429
          3.5930506482    0.44575817336002
 s    1 1.00
         0.40245147363                   1
 s    1 1.00
         0.13090182668                   1
 p    3 1.00
          9.4680970621   0.056888332011037
          2.0103545142    0.31294059336471
         0.54771004707    0.76065016509135
 p    1 1.00
         0.15268613795                   1
 d    1 1.00
                   0.8                   1

22 0
 s    3 1.00
             13.010701   0.033485484812989
             1.9622572    0.23472187088125
            0.44453796    0.81377028525955
 s    1 1.00
            0.12194962                   1
 p    1 1.00
                   0.8                   1

23 0
 s    3 1.00
             13.010701   0.033485484812989
             1.9622572    0.23472187088125
            0.44453796    0.81377028525955
 s    1 1.00
            0.12194962                   1
 p    1 1.00
                   0.8                   1

24 0
 s    3 1.00
             13.010701   0.033485484812989
             1.9622572    0.23472187088125
            0.44453796    0.81377028525955
 s    1 1.00
            0.12194962                   1
 p    1 1.00
                   0.8                   1

[5d]
[7f]
[9g]

[MO]
 Sym= A
 Ene=               0
 Spin= Alpha
 Occup=    1.00000
   1    0.0007462402866153
   2    -0.0022245165267042
   3    0.0098915613628895
   4    -0.017557570408327
   5     0.010836826466095
   6    -0.00084685139381024
   7    0.0019086254781277
   8    0.0016216560539254
   9    0.0026364065639358
  10    -0.0059112429641011
  11    -0.0050638916056089
  12    -0.0039222495177695
  13    0.0070183351490069
  14    0.0073552287539839
  15    -0.0028300927144992
  16     -0.60240291332032
  17      0.32761120605354
  18     -0.54121926936625
  19      0.09607672814561
  20    -0.0012739443516219
  21      -0.1622575199063
  22     0.089877888908728
  23     -0.14620867025674
  24     0.025168784758179
  25    2.1304905111129e-05
  26    -0.00028583200861977
  27    -0.00011223453198754
  28    -0.00017479301122627
  29    -0.00028745765755932
  30    -0.00016887684543673
  31    -0.00034403260886983
  32    -0.00037226854588122
  33    -0.0025646857318272
  34    0.0053204326186331
  35    0.0053274431182459
  36    -0.017273737764726
  37     0.011366026780515
  38    -0.010735535848931
  39    -0.028439886190656
  40     0.018938433921698
  41    -0.017392988597177
  42    -0.046196312089998
  43     0.032978216944983
  44    -0.035975522922863
  45    0.0023249222702794
  46    0.00057033668959411
  47    -0.00030882848651549
  48    0.00020827315038197
  49    0.0021379661466048
  50    -0.00030477957953548
  51    -0.002133424301808
  52    0.0049652891160186
  53    0.0048828167222522
  54     0.015569498883077
  55    0.0004162177602403
  56     0.016325778777888
  57     0.025518392120656
  58    0.00094083368688869
  59     0.026949811430488
  60     0.042760763530468
  61    -0.0037036893701003
  62     0.048807312946769
  63    -0.001026371730846
  64    -0.0008508023496318
  65    -0.0023709423838174
  66    -0.00018690885388999
  67    -0.0014493176674725
  68    0.0015346907819256
  69    -0.0043954348799661
  70     0.021199726193961
  71    -0.038321559288055
  72     0.014858598863674
  73    0.00059014189289144
  74    -0.0025098393632515
  75    -0.0017532042738291
  76    -0.0019318662024066
  77    0.0081977884754775
  78     0.005727588996202
  79    0.0030895760676768
  80    -0.011711182586032
  81    -0.0085198377892311
  82    0.00095111609968822
  83    0.0028610618750941
  84    -0.003876304474722
  85    0.0020382534282875
  86    -0.00031672806184298
  87    0.0016813454587777
  88    0.0050735623583113
  89    -0.00077048776399317
  90    -4.4922425324017e-05
  91    -0.0034703854443999
  92    -5.1086476629489e-05
  93    0.00018472337613355
  94    0.00017503548254013
  95    -0.00034838806391503
  96    -3.7699670833752e-05
  97    0.00033718175329154
  98    -0.00011122573575616
  99    -0.00070022887557903
 100    -0.0046212894636225
 101    0.0073414462909765
 102    0.0062697591869513
 103     0.004372839853166
 104    -0.0083280644644708
 105     0.001036162660146
 106    0.0077558821930021
 107    -0.014555903754048
 108    0.0015181564592615
 109    0.0074954361135584
 110     -0.02254287512366
 111    0.0050549560661025
 112    0.0015772621389303
 113    0.0026261922011087
 114    -0.0014505311453598
 115    -0.0022053715362853
 116    0.0014419487536164
 117    -0.00093465764868509
 118    -0.0061407188068284
 119    0.0089100719090661
 120     0.009784509471186
 121    -0.0053275763983353
 122    -0.0020449786166017
 123    -0.0051491741928835
 124    -0.0091962534266777
 125    -0.0039283264881269
 126    -0.0090304441893245
 127    -0.013433937545489
 128    -0.0016002378933043
 129    -0.011860762225541
 130    0.0010977609658552
 131    -0.0005347014869134
 132    -0.0036951661863302
 133    0.0025643323338527
 134    -0.0026817479116356
 135    -0.00020293735559068
 136    -0.0013604526016734
 137    0.0031660196809256
 138    -0.0021541416292541
 139    0.00059192549051187
 140     0.001196537532429
 141     0.002609262361988
 142    0.0013507651960086
 143     0.002149697285419
 144    0.0044617381743203
 145    -6.179788439807e-05
 146    0.0035442819838792
 147     0.008312072697529
 148    2.697057945515e-05
 149    -0.00018965444574702
 150    -0.00027250812010142
 151    0.00023264229597219
 152    -0.00019820933009249
 153    -0.00022565992898446
 154    -0.0015133844434376
 155    0.0034224464900309
 156    -0.001856638362298
 157    -0.0014141327030658
 158    0.0026770641469217
 159    -7.6645913353802e-05
 160    -0.0027259941278148
 161    0.0045594485287067
 162    -8.8078312222529e-05
 163    -0.0028865921130502
 164    0.0088349765921649
 165    -0.00022421979079711
 166    6.2359486046976e-05
 167    0.00020066086923322
 168    -0.0002223101354625
 169    1.281815341529e-05
 170    0.00034888166217424
 171    0.0034590391539472
 172    -0.0081209226142711
 173    -0.0044643272082035
 174    0.0071742668353858
 175     0.012583814639494
 176     0.010112335385154
 177    0.0067676256460454
 178    0.0055032239862318
 179    0.0088214089177337
 180    -0.00036754389694113
 181    -0.00062790625936868
 182    -0.0007148041781042
 183    7.7924493955073e-05
 184    -0.00053678371543371
 185    0.0033677027442705
 186    0.0017020158149726
 187    -8.8079897924614e-05
 188    0.00045784947234947
 189    0.0002973626264017
 190     0.004557322597883
 191    0.0034647503147252
 192    0.00038838783243415
 193    9.2535108763061e-05
 194    6.6435453837632e-05
 195    -0.00057183920440326
 196    -0.0026719516640651
 197    8.7012693337711e-05
 198    -0.00014013561472712
 199    5.9379693435883e-05
 200    0.0031524794499103
 201    -0.0066874897014031
 202    -0.0075766536470379
 203    -0.013893735889138
 204    0.0033733702981843
 205    0.0033355915341372
 206    -0.010015225096691
 207    0.00070686495343795
 208    0.00048100860647023
 209    0.00083031757983433
 210    -0.00038936666711248
 211    0.00019859663951471
 212    -0.00083973323397793
 213    -0.00011601485659717
 214    -0.00047277681592475
 215    -0.0021890172713502
 216    -0.00026956642157883
 217    3.2330104444741e-05
 218    0.00011767208506513
 219    0.0058208743463053
 220    0.0044370640795998
 221    -0.00026756806810101
 222    2.0291255771004e-05
 223    -0.00015134971963734
 224    0.00078921461742083
 225    0.0037105039479356
 226    -2.0319431381871e-05
 227    -2.791931700595e-05
 228    -8.7122756182669e-05
 229    -0.00060783377161944
 230    0.00068284447577503
 231    0.0095693902000693
 232    -0.00042003256594077
 233    0.0013532313370631
 234     0.001133439578422
 235    -0.0022466527578024
 236    0.00083309596982759
 237    0.0013866577053126
 238    -2.2597744006601e-05
 239    -2.4157020405895e-05
 240    6.2343867497612e-05
 241    -7.0113019661706e-06
 242    0.0001257306507619
 243    -0.00028936357497517
 244    -0.0033424791587267
 245    4.2004584680665e-05
 246    8.3248182536783e-05
 247    -4.0917591577599e-05
 248    -0.00044938207578389
 249    -0.0018982521443278
 250    -3.3844758864869e-05
 251    -5.1143572566039e-05
 252    2.9176673825823e-05
 253    0.00062288904719722
 254    -0.0079562828286836
 255    -0.00011391792057785
 256    -0.00023308934622355
 257    2.7744952615748e-05
 258    -0.00052515681885108
 259    0.00056021191772535
 260    0.0088381347661924
 261    -0.00035736187556595
 262    0.0013294097464743
 263    0.00067465747461409
 264    0.0011421105984668
 265    0.0016835560787367
 266    0.00032163156798599
 267    -4.697997099332e-05
 268    -0.00013061305184325
 269    2.3995225869508e-05
 270    3.7551917776861e-05
 271    -4.0654190927234e-05
 272    -0.00031225835950166
 273    -0.0017664324315318
 274    4.3886215707132e-05
 275    1.1598868867036e-05
 276    -5.7278265703441e-05
 277    0.00046158042379829
 278    -0.0069724668448176
 279    0.00015235085696132
 280    2.6999561534745e-06
 281    -0.00014947113710961
 282    -0.0002732640125031
 283    -0.0033591284856488
 284    -4.9092027988126e-05
 285    -2.0231251272655e-05
 286    9.0836593095435e-05
 Sym= A
 Ene=               1
 Spin= Alpha
 Occup=    1.00000
   1    -0.0005654356223524
   2    0.0016954429015819
   3    -0.0074618109179959
   4     0.013953318230034
   5    -0.017724030672471
   6    -0.00078112828148664
   7    1.4774129791137e-05
   8    -0.0001546313137622
   9    0.0024816668875414
  10    -0.00012541050249677
  11    0.00040123246395859
  12    -0.0052652529894843
  13    0.0049489725334964
  14    0.0027667605632763
  15    -0.012093688660723
  16     -0.39555555962838
  17     -0.64342407904815
  18      0.12599746121194
  19      0.43052522241501
  20    -0.0028675520999875
  21     -0.10414488196919
  22     -0.17197787684522
  23     0.034888230013337
  24      0.11423094017682
  25    0.00021657408602524
  26    -0.00023053496427672
  27    -0.00011299538866615
  28    0.00026971471409749
  29    -0.00015841410197122
  30    -0.00023960600296178
  31    7.3020274957918e-05
  32    0.00052019551683659
  33    0.0035359592090398
  34    -0.0068403591279464
  35    -0.005211556802086
  36     0.010540293232186
  37    0.0059882230813358
  38    -0.021576693562329
  39      0.01743618205102
  40    0.0094650910008993
  41    -0.035443974021137
  42     0.025880828272092
  43     0.021076380508122
  44    -0.063735278668852
  45    0.0012621483822035
  46    -0.0021467312351287
  47    0.0019833573823129
  48    0.0010098561350807
  49    -0.00060543561162973
  50    0.00067484247231473
  51    0.0045153788886369
  52    -0.0077498311459684
  53    -0.0061303445266013
  54    -0.0055005203801867
  55    -0.019973694138443
  56    0.0080971885510948
  57    -0.0090708804237711
  58    -0.033050233590037
  59      0.01300501602185
  60    -0.012541459454524
  61    -0.055650804814635
  62      0.02819438269744
  63    -0.0021066327354832
  64    0.00026755323518215
  65    0.0006744050406956
  66    -0.0023612274132022
  67    0.0010271285786139
  68    -0.0016037663892262
  69    0.0045808514062842
  70    -0.022208031207134
  71     0.037522683088489
  72    -0.0039155353490361
  73    -0.00062802177377502
  74     0.002785270270506
  75    0.0016305772146797
  76    0.0020539719226072
  77    -0.0091121940841003
  78    -0.0053485759610645
  79    -0.0029695884017686
  80     0.015139222215219
  81    0.0086338666709705
  82    -0.0023820658118746
  83    -0.00022001029879141
  84     0.004612017929639
  85    -0.00054940489596375
  86    -0.0011703204895227
  87    -0.0038940596435781
  88    0.0018969353049829
  89    0.0033988525890653
  90    0.0038711006168166
  91    -0.00013739430251967
  92    1.1161693482262e-06
  93    0.00019896493676472
  94    -0.00010518153240468
  95    0.00026062368289938
  96    0.00022146916533715
  97    -0.00017301009801735
  98    0.00043152078258478
  99    -0.00042498810090568
 100    -0.0027220921617648
 101    0.0023913300154163
 102    0.0081107836440541
 103    0.0069846523048775
 104     0.019680532767124
 105    -0.003119896691824
 106      0.01187478236008
 107     0.033946428606836
 108    -0.0053725768584675
 109     0.019720803452951
 110     0.058171845841823
 111    -0.0090424365231257
 112    0.00061178765988888
 113    0.0013453326053065
 114    0.0018037807713883
 115    -0.0013750352648716
 116    0.00031766447705384
 117    -7.328270063911e-05
 118    -0.00041537230327552
 119    -0.00099438416500707
 120    0.0035574843311288
 121    -0.013066511219547
 122    -0.0033964613564197
 123     0.013957630247384
 124    -0.022466021819491
 125    -0.0056415542424006
 126     0.024164171348346
 127     -0.03905330324116
 128    -0.011182455658346
 129     0.040459768439556
 130    -0.00041630801858342
 131    -0.00050906161288423
 132    0.0013955220543805
 133    0.00022018471867978
 134    -0.0011303641155075
 135    0.00046390357711521
 136     0.003059503738653
 137    -0.0047729256236884
 138    -0.0048666763475512
 139    0.00033458812026489
 140    -0.00073449151803036
 141    -0.0034243307603386
 142    0.0010177822553535
 143    -0.0013325400805355
 144    -0.0060744333176394
 145    -0.0022791659468333
 146    -0.0022627363877806
 147    -0.010013490541057
 148    -0.00017946079198307
 149    -0.00074170231665607
 150    0.0003591393273323
 151    0.00036086986787961
 152    -0.00031143705561514
 153    0.00039319587542918
 154    0.0025873139912339
 155    -0.0040373059213184
 156    -0.0038845485318726
 157    0.00044738376460461
 158    -0.0031358803386751
 159    0.00072481744452582
 160    0.00044581410621833
 161    -0.0056461151040333
 162    0.0012118303396167
 163     0.003946146594683
 164     -0.00827890523585
 165    0.0023358812026537
 166    -0.00035261002718426
 167    6.7963245457963e-05
 168    0.00030365169122331
 169    -0.0001843973894946
 170    0.00063535610914155
 171    0.00021526027360693
 172    0.00047043034006552
 173    -0.010200493169498
 174    0.00079601801592405
 175    -2.2036002791238e-05
 176    -0.0050472007672448
 177    -0.0014984934525921
 178    0.0019869886401026
 179    -0.0063641283489883
 180    -0.00096054482081769
 181    7.1670976027021e-05
 182    -0.00026668046048884
 183    0.00051368631576462
 184    0.00097956803576391
 185    0.0061846896087156
 186    0.0070137921498473
 187    -5.1727721057975e-05
 188    8.0474850517904e-05
 189    0.00022056954697692
 190    -0.0033632907870024
 191    -0.0013275908649146
 192    -0.00010276491431593
 193    2.3010023051874e-05
 194    -0.00020585360257919
 195    -0.0031102215683453
 196    0.0086229527604861
 197    9.2513971323627e-05
 198    -0.000207087663404
 199    0.00029009714286647
 200    0.0016105527299135
 201     -0.00343407042753
 202    -0.0056561326169734
 203    -0.0057980693608674
 204    -0.0035215214098768
 205    0.0031957017804039
 206    -0.0042147611477488
 207    -0.0049641259975372
 208    0.0020159726456702
 209    0.00014904753907315
 210    -0.00030853908964824
 211    0.00047684809578127
 212    0.00028875503106809
 213    0.0014768346044931
 214    0.0059244551610202
 215     0.002662947776942
 216    -0.00030446184960278
 217    0.00033540683112244
 218    0.00035760544298605
 219    0.0016402039897515
 220    0.0022778317691935
 221    -7.1374765082693e-05
 222    -0.00018849727393468
 223    -3.1331383870739e-06
 224    -0.0058816962715371
 225    0.0034679238089505
 226    -2.5721782761622e-05
 227    0.00033560872551426
 228    -0.00041099265796853
 229    -0.0006132682063155
 230    0.00061246296036362
 231    0.0082875660846523
 232    0.0012301272440615