[Molden Format]
made by pyscf v[2.2.1]
[Atoms] (AU)
Fe   1   26    10.35569916261654     2.17318504324982   -15.17450078025744
S   2   16     7.65339080448850    -1.15273293598469   -16.53510358994429
S   3   16    14.15404867299231     0.79368497231733   -17.08312416606816
Fe   4   26    11.41394579237297    -2.30546587196938   -18.19806257956155
S   5   16    10.33680190137089     2.36215765570633   -10.54467177507304
S   6   16     8.74943195673624     6.19830168857340   -16.57289811243559
S   7   16    10.86592521624911    -2.83458918684759   -22.77119980100900
S   8   16    12.96352121451632    -6.44396608476686   -16.74297346364645
C   9   6    10.41239094635349     8.40928125431453   -14.19184319548361
H   10   1    12.26432254842725     9.12737718164925   -14.96663090655529
H   11   1     9.20296622663185    10.07224024393178   -13.70051440309670
H   12   1    10.80923343251215     7.25654831832984   -12.45329516088376
C   13   6     6.80301404843422     3.21253441176060   -10.46908273009044
H   14   1     5.68807563494084     1.51178089965205   -10.99820604496866
H   15   1     6.19830168857340     3.89283581660403    -8.54156208303408
H   16   1     6.46286334601251     4.68652078892135   -11.92417184600554
C   17   6     9.84547310898397    -7.97464424566456   -17.87680913838549
H   18   1     9.63760323528181    -7.57780175950590   -19.93661061416140
H   19   1     9.84547310898397   -10.05334298268613   -17.49886391347247
H   20   1     8.25810316434932    -7.02978118338203   -16.87525429236600
C   21   6    14.41861033043142    -3.49599333044536   -23.13024776467636
H   22   1    14.92883638406399    -3.89283581660403   -25.15225471796098
H   23   1    15.49575422143351    -1.81413707958246   -22.41215183734163
H   24   1    14.90993912281834    -5.14005505881697   -21.90192578370907
[GTO]
1 0
 s    6 1.00
          60923.640643  0.0017552243692958
          9147.8893982   0.013449023284001
          2081.3505927   0.066678874640978
          587.55977067    0.23176348548844
           191.0904399    0.46945550248188
          65.732730112     0.3596824938678
 s    3 1.00
          127.25891928   -0.10723431835929
           14.83091301    0.62971616328466
          6.0653307408    0.44472317896179
 s    3 1.00
           10.44994371   -0.21694289195548
          1.7245228003    0.69457867408393
         0.71772177325    0.43298308896347
 s    1 1.00
        0.091449828308                   1
 s    1 1.00
        0.033706691021                   1
 p    5 1.00
          773.43750995  0.0091440529992506
          182.15149714   0.067887577136571
          57.547272758    0.26167978878504
          20.614988935    0.51088040113251
           7.634855789    0.33235475570224
 p    3 1.00
           3.871932799    0.33193859098144
          1.4924724132     0.5553666555499
         0.56061284958    0.23106034201617
 p    1 1.00
              0.134915                   1
 d    4 1.00
          38.968133419   0.033335938558743
          10.800067078    0.17766212505983
          3.6136457999      0.441281781625
          1.2129967888    0.57089200490673
 d    1 1.00
          0.3652439317                   1
 f    1 1.00
                 1.598                   1

2 0
 s    5 1.00
           9184.930301  -0.0054729466134731
          1381.5105503  -0.040954402155135
           313.8714758   -0.18475828956188
          88.053870623   -0.47567280643953
          27.039914905   -0.43495153584169
 s    3 1.00
          45.648731303  -0.091904045808942
          4.9664522326    0.55698777214497
          2.0116242047     0.5111546829846
 s    1 1.00
         0.35661077013                   1
 s    1 1.00
         0.13507221477                   1
 p    5 1.00
          261.98233439  -0.009183054659266
          61.306894736   -0.06590222652599
          19.103729887   -0.24587784518735
          6.6567720378    -0.4823147107602
          2.3959635161   -0.38956314351423
 p    1 1.00
         0.61776161679                   1
 p    1 1.00
         0.16993376871                   1
 d    1 1.00
                  0.55                   1

3 0
 s    5 1.00
           9184.930301  -0.0054729466134731
          1381.5105503  -0.040954402155135
           313.8714758   -0.18475828956188
          88.053870623   -0.47567280643953
          27.039914905   -0.43495153584169
 s    3 1.00
          45.648731303  -0.091904045808942
          4.9664522326    0.55698777214497
          2.0116242047     0.5111546829846
 s    1 1.00
         0.35661077013                   1
 s    1 1.00
         0.13507221477                   1
 p    5 1.00
          261.98233439  -0.009183054659266
          61.306894736   -0.06590222652599
          19.103729887   -0.24587784518735
          6.6567720378    -0.4823147107602
          2.3959635161   -0.38956314351423
 p    1 1.00
         0.61776161679                   1
 p    1 1.00
         0.16993376871                   1
 d    1 1.00
                  0.55                   1

4 0
 s    6 1.00
          60923.640643  0.0017552243692958
          9147.8893982   0.013449023284001
          2081.3505927   0.066678874640978
          587.55977067    0.23176348548844
           191.0904399    0.46945550248188
          65.732730112     0.3596824938678
 s    3 1.00
          127.25891928   -0.10723431835929
           14.83091301    0.62971616328466
          6.0653307408    0.44472317896179
 s    3 1.00
           10.44994371   -0.21694289195548
          1.7245228003    0.69457867408393
         0.71772177325    0.43298308896347
 s    1 1.00
        0.091449828308                   1
 s    1 1.00
        0.033706691021                   1
 p    5 1.00
          773.43750995  0.0091440529992506
          182.15149714   0.067887577136571
          57.547272758    0.26167978878504
          20.614988935    0.51088040113251
           7.634855789    0.33235475570224
 p    3 1.00
           3.871932799    0.33193859098144
          1.4924724132     0.5553666555499
         0.56061284958    0.23106034201617
 p    1 1.00
              0.134915                   1
 d    4 1.00
          38.968133419   0.033335938558743
          10.800067078    0.17766212505983
          3.6136457999      0.441281781625
          1.2129967888    0.57089200490673
 d    1 1.00
          0.3652439317                   1
 f    1 1.00
                 1.598                   1

5 0
 s    5 1.00
           9184.930301  -0.0054729466134731
          1381.5105503  -0.040954402155135
           313.8714758   -0.18475828956188
          88.053870623   -0.47567280643953
          27.039914905   -0.43495153584169
 s    3 1.00
          45.648731303  -0.091904045808942
          4.9664522326    0.55698777214497
          2.0116242047     0.5111546829846
 s    1 1.00
         0.35661077013                   1
 s    1 1.00
         0.13507221477                   1
 p    5 1.00
          261.98233439  -0.009183054659266
          61.306894736   -0.06590222652599
          19.103729887   -0.24587784518735
          6.6567720378    -0.4823147107602
          2.3959635161   -0.38956314351423
 p    1 1.00
         0.61776161679                   1
 p    1 1.00
         0.16993376871                   1
 d    1 1.00
                  0.55                   1

6 0
 s    5 1.00
           9184.930301  -0.0054729466134731
          1381.5105503  -0.040954402155135
           313.8714758   -0.18475828956188
          88.053870623   -0.47567280643953
          27.039914905   -0.43495153584169
 s    3 1.00
          45.648731303  -0.091904045808942
          4.9664522326    0.55698777214497
          2.0116242047     0.5111546829846
 s    1 1.00
         0.35661077013                   1
 s    1 1.00
         0.13507221477                   1
 p    5 1.00
          261.98233439  -0.009183054659266
          61.306894736   -0.06590222652599
          19.103729887   -0.24587784518735
          6.6567720378    -0.4823147107602
          2.3959635161   -0.38956314351423
 p    1 1.00
         0.61776161679                   1
 p    1 1.00
         0.16993376871                   1
 d    1 1.00
                  0.55                   1

7 0
 s    5 1.00
           9184.930301  -0.0054729466134731
          1381.5105503  -0.040954402155135
           313.8714758   -0.18475828956188
          88.053870623   -0.47567280643953
          27.039914905   -0.43495153584169
 s    3 1.00
          45.648731303  -0.091904045808942
          4.9664522326    0.55698777214497
          2.0116242047     0.5111546829846
 s    1 1.00
         0.35661077013                   1
 s    1 1.00
         0.13507221477                   1
 p    5 1.00
          261.98233439  -0.009183054659266
          61.306894736   -0.06590222652599
          19.103729887   -0.24587784518735
          6.6567720378    -0.4823147107602
          2.3959635161   -0.38956314351423
 p    1 1.00
         0.61776161679                   1
 p    1 1.00
         0.16993376871                   1
 d    1 1.00
                  0.55                   1

8 0
 s    5 1.00
           9184.930301  -0.0054729466134731
          1381.5105503  -0.040954402155135
           313.8714758   -0.18475828956188
          88.053870623   -0.47567280643953
          27.039914905   -0.43495153584169
 s    3 1.00
          45.648731303  -0.091904045808942
          4.9664522326    0.55698777214497
          2.0116242047     0.5111546829846
 s    1 1.00
         0.35661077013                   1
 s    1 1.00
         0.13507221477                   1
 p    5 1.00
          261.98233439  -0.009183054659266
          61.306894736   -0.06590222652599
          19.103729887   -0.24587784518735
          6.6567720378    -0.4823147107602
          2.3959635161   -0.38956314351423
 p    1 1.00
         0.61776161679                   1
 p    1 1.00
         0.16993376871                   1
 d    1 1.00
                  0.55                   1

9 0
 s    5 1.00
          1238.4016938  0.0055173650481097
          186.29004992   0.041088828555946
          42.251176346     0.1822538212649
          11.676557932    0.46828459437429
          3.5930506482    0.44575817336002
 s    1 1.00
         0.40245147363                   1
 s    1 1.00
         0.13090182668                   1
 p    3 1.00
          9.4680970621   0.056888332011037
          2.0103545142    0.31294059336471
         0.54771004707    0.76065016509135
 p    1 1.00
         0.15268613795                   1
 d    1 1.00
                   0.8                   1

10 0
 s    3 1.00
             13.010701   0.033485484812989
             1.9622572    0.23472187088125
            0.44453796    0.81377028525955
 s    1 1.00
            0.12194962                   1
 p    1 1.00
                   0.8                   1

11 0
 s    3 1.00
             13.010701   0.033485484812989
             1.9622572    0.23472187088125
            0.44453796    0.81377028525955
 s    1 1.00
            0.12194962                   1
 p    1 1.00
                   0.8                   1

12 0
 s    3 1.00
             13.010701   0.033485484812989
             1.9622572    0.23472187088125
            0.44453796    0.81377028525955
 s    1 1.00
            0.12194962                   1
 p    1 1.00
                   0.8                   1

13 0
 s    5 1.00
          1238.4016938  0.0055173650481097
          186.29004992   0.041088828555946
          42.251176346     0.1822538212649
          11.676557932    0.46828459437429
          3.5930506482    0.44575817336002
 s    1 1.00
         0.40245147363                   1
 s    1 1.00
         0.13090182668                   1
 p    3 1.00
          9.4680970621   0.056888332011037
          2.0103545142    0.31294059336471
         0.54771004707    0.76065016509135
 p    1 1.00
         0.15268613795                   1
 d    1 1.00
                   0.8                   1

14 0
 s    3 1.00
             13.010701   0.033485484812989
             1.9622572    0.23472187088125
            0.44453796    0.81377028525955
 s    1 1.00
            0.12194962                   1
 p    1 1.00
                   0.8                   1

15 0
 s    3 1.00
             13.010701   0.033485484812989
             1.9622572    0.23472187088125
            0.44453796    0.81377028525955
 s    1 1.00
            0.12194962                   1
 p    1 1.00
                   0.8                   1

16 0
 s    3 1.00
             13.010701   0.033485484812989
             1.9622572    0.23472187088125
            0.44453796    0.81377028525955
 s    1 1.00
            0.12194962                   1
 p    1 1.00
                   0.8                   1

17 0
 s    5 1.00
          1238.4016938  0.0055173650481097
          186.29004992   0.041088828555946
          42.251176346     0.1822538212649
          11.676557932    0.46828459437429
          3.5930506482    0.44575817336002
 s    1 1.00
         0.40245147363                   1
 s    1 1.00
         0.13090182668                   1
 p    3 1.00
          9.4680970621   0.056888332011037
          2.0103545142    0.31294059336471
         0.54771004707    0.76065016509135
 p    1 1.00
         0.15268613795                   1
 d    1 1.00
                   0.8                   1

18 0
 s    3 1.00
             13.010701   0.033485484812989
             1.9622572    0.23472187088125
            0.44453796    0.81377028525955
 s    1 1.00
            0.12194962                   1
 p    1 1.00
                   0.8                   1

19 0
 s    3 1.00
             13.010701   0.033485484812989
             1.9622572    0.23472187088125
            0.44453796    0.81377028525955
 s    1 1.00
            0.12194962                   1
 p    1 1.00
                   0.8                   1

20 0
 s    3 1.00
             13.010701   0.033485484812989
             1.9622572    0.23472187088125
            0.44453796    0.81377028525955
 s    1 1.00
            0.12194962                   1
 p    1 1.00
                   0.8                   1

21 0
 s    5 1.00
          1238.4016938  0.0055173650481097
          186.29004992   0.041088828555946
          42.251176346     0.1822538212649
          11.676557932    0.46828459437429
          3.5930506482    0.44575817336002
 s    1 1.00
         0.40245147363                   1
 s    1 1.00
         0.13090182668                   1
 p    3 1.00
          9.4680970621   0.056888332011037
          2.0103545142    0.31294059336471
         0.54771004707    0.76065016509135
 p    1 1.00
         0.15268613795                   1
 d    1 1.00
                   0.8                   1

22 0
 s    3 1.00
             13.010701   0.033485484812989
             1.9622572    0.23472187088125
            0.44453796    0.81377028525955
 s    1 1.00
            0.12194962                   1
 p    1 1.00
                   0.8                   1

23 0
 s    3 1.00
             13.010701   0.033485484812989
             1.9622572    0.23472187088125
            0.44453796    0.81377028525955
 s    1 1.00
            0.12194962                   1
 p    1 1.00
                   0.8                   1

24 0
 s    3 1.00
             13.010701   0.033485484812989
             1.9622572    0.23472187088125
            0.44453796    0.81377028525955
 s    1 1.00
            0.12194962                   1
 p    1 1.00
                   0.8                   1

[5d]
[7f]
[9g]

[MO]
 Sym= A
 Ene=               0
 Spin= Alpha
 Occup=    1.00000
   1    -0.0008752444906809
   2    0.0026236474107028
   3    -0.011556530730283
   4     0.021405291715274
   5     -0.02218180419695
   6    3.4568942410471e-06
   7    -0.00029642335023859
   8    -4.2211495871167e-05
   9    2.9650534851292e-05
  10    0.00080927525097175
  11    6.2368247363246e-05
  12    -0.00099189627905791
  13    0.0036970802433419
  14    0.0020628389995243
  15     -0.08977952716476
  16      0.27838652843305
  17     -0.57320153645509
  18      0.57138632848897
  19      0.17519794682261
  20     -0.02245302536474
  21     0.076356675276922
  22     -0.15550419107126
  23      0.15404945945661
  24     0.046610557641077
  25    0.00012848412320337
  26    0.00011284706064704
  27    -2.2264005400482e-05
  28    0.00033768469562973
  29    0.00018330193275207
  30    -4.165613181037e-05
  31    0.00039389264491649
  32    0.00091081255059265
  33     0.006111727966666
  34    -0.010634781899218
  35    -0.0096313898962734
  36      0.02032778361293
  37    -0.009292520635918
  38    -0.0049151574512389
  39     0.034481488459539
  40    -0.016050640455809
  41    -0.0084861680492264
  42     0.052042209005325
  43    -0.025025428381687
  44    -0.010708606111012
  45    -0.0011627672584972
  46    -0.0020181155714425
  47    0.0015422356243148
  48    0.00035439062464161
  49    -0.0027354929706302
  50    0.00094505955088473
  51     0.006329156773351
  52    -0.010906301646321
  53    -0.009811693980328
  54    -0.015218997362325
  55    -0.013247068165025
  56    -0.012741091248777
  57    -0.025720239167911
  58    -0.022692934890258
  59    -0.021751444867579
  60    -0.039270232139674
  61    -0.032425217944332
  62    -0.035645295534395
  63    -0.00017819069197702
  64    0.0012288066898774
  65      0.00276596533409
  66    -0.0015822286847225
  67    0.0020853336810972
  68    -0.0022687143914235
  69    0.0064678413057461
  70     -0.03155572620659
  71     0.055964548315058
  72     -0.01029177734156
  73    -0.00084396520150934
  74    0.0036501693791848
  75    0.0022496913628203
  76    0.0027687195872551
  77    -0.011957436054908
  78    -0.0073841208107735
  79    -0.0045455792289215
  80     0.019400918922549
  81      0.01173229288032
  82    -0.0018010116529091
  83    -0.0026091130263426
  84     0.005256488685565
  85    -0.002601784048192
  86    -0.00053157047666195
  87    -0.0038030356473166
  88    -0.0032343124673535
  89     0.001845521800754
  90    0.0026406868915486
  91    0.0032257171334666
  92    5.8502642340054e-05
  93    -5.0060339468744e-05
  94    -0.00022433745775006
  95    0.00046496307513625
  96    0.00015854801073888
  97    -0.00041749018635537
  98    0.00035621031113062
  99    -0.00013262942425688
 100    -0.0007672348045564
 101    -0.0010376660926835
 102    0.0041182585108919
 103    0.00029654139762156
 104     0.015355843549863
 105    -0.0073362735701202
 106    0.00030591034195064
 107     0.026620723526294
 108    -0.012324830567325
 109    0.0034926141909214
 110     0.043887361006558
 111    -0.023425057033195
 112    -0.00038929418544873
 113    -0.0012497148208451
 114    0.0018985966086927
 115     0.001009199692924
 116    -0.00085132330702407
 117    0.00045694570827888
 118    0.0030584161986665
 119    -0.0056556993890648
 120    -0.0033050477117739
 121    -0.00048943429655373
 122    -0.0017944935278336
 123       0.0106445529297
 124    -0.0008254168502296
 125    -0.0026779928750137
 126      0.01853388664708
 127    -0.0032549357927031
 128    -0.009012354134245
 129     0.028360745963994
 130    -0.0011494563908755
 131    0.00021295116705864
 132    0.0031838255458412
 133    -0.0018766154165825
 134    0.0014512221359315
 135    0.00049285475911589
 136    0.0032668272096899
 137    -0.0057152243238103
 138    -0.0028015057634715
 139    -0.00031014673870567
 140    -0.0015045646654523
 141    -0.0044799459608364
 142    -0.00058099045546228
 143    -0.0026958713030027
 144    -0.0078103118605591
 145    -0.0013073191066693
 146    -0.0045828268269767
 147     -0.01405475717767
 148    -8.8774216350443e-05
 149    -0.00030314152076607
 150    0.00048285616156752
 151    1.9272054634838e-05
 152    -4.074314980402e-06
 153    0.00044120286184922
 154    0.0029237563910284
 155    -0.0052359839740138
 156    -0.0019010299084974
 157    0.0014798890358889
 158     -0.00420574268774
 159    0.0005768519484066
 160    0.0026457912481754
 161    -0.0073365062843138
 162    0.00097107969303353
 163    0.0046830852137413
 164    -0.012846713207342
 165    0.0017579106825968
 166    -0.00029739416021017
 167    -0.00012930092302668
 168    0.00032231920874598
 169    -0.00016359862938602
 170    4.2179085720397e-05
 171    -0.0023266472057801
 172     0.006010480900103
 173    -0.0022383080036298
 174    -0.0052755175616496
 175    -0.0089766392992857
 176    -0.010012278170339
 177    -0.005721035481339
 178    -0.0027746917373397
 179    -0.0094044826090611
 180    -0.00022325773988961
 181    0.00043135731287734
 182    0.00048266495672062
 183    5.2796781765864e-05
 184     0.000798463825873
 185    -5.5181686762594e-05
 186    0.0022648562849138
 187    3.4635765887528e-05
 188    -0.000305033644177
 189    -0.0001470293992899
 190    -0.0041424993045804
 191    -0.0021832735673779
 192    -0.00031188681705659
 193    -4.8547066196664e-05
 194    -0.00013838369802453
 195    -0.0014351557839224
 196    0.0056084322177273
 197    -1.6304008596939e-05
 198    -6.1670954548106e-05
 199     0.000143806644399
 200    -0.0014400198676671
 201    0.0032569686882519
 202     0.001876850909398
 203    0.0072274770845337
 204    -0.0042362463778298
 205    -0.00025673893694699
 206    0.0039478429720693
 207    -0.0026580665812063
 208     0.001292172509229
 209    -0.00046830137422415
 210    -0.00017040914682147
 211    0.00021559447746895
 212    0.00077798712534552
 213    0.00076498334589015
 214    0.0026929978023561
 215    0.0023891172489137
 216    7.9689783184053e-05
 217    0.00011086034596196
 218    0.00012411734731944
 219    -0.0020587852725579
 220    -0.00088595599856218
 221    0.00011399471775909
 222    -0.00011039478339284
 223    8.8412032539314e-05
 224    -0.0044314339400887
 225    -0.0021729629355041
 226    5.8311226109888e-05
 227    0.00022363942479345
 228    -0.00018996461737365
 229    0.00028444696051627
 230    -0.00051623118695759
 231    -0.0036978990343389
 232    0.0013586224547588
 233    -0.00053688812002112
 234    -0.00056412107737987
 235    0.0021973635456897
 236    8.9529623489115e-05
 237    -0.00012207882375128
 238    2.2155637684083e-05
 239    7.2163860762345e-05
 240    -3.1204881059618e-05
 241    0.00014367634241679
 242    -0.00020656807781514
 243    9.8837601519222e-05
 244    0.0024404506067477
 245    -5.0013483575567e-05
 246    -0.00011591603379316
 247    4.1986496157273e-05
 248    -0.00043777225750675
 249    0.00051660585371964
 250    0.00011738327472783
 251    4.0639602884187e-05
 252    -1.8852352850225e-05
 253    -0.00040412841263146
 254    0.0034517674173502
 255    9.0662118166517e-06
 256    0.00025652073619365
 257    -2.8459746845493e-05
 258    0.00024085722455841
 259    -0.00037372755481357
 260    -0.0038795021561394
 261    -0.0012564887527874
 262    -0.0011358043854188
 263    -0.00047922897309631
 264    -0.0025853167517797
 265    -0.0010527161486944
 266    -0.00034432222977065
 267    -3.4216153430516e-05
 268    0.00028133866678973
 269    -2.9380121138858e-05
 270    2.7158669589153e-05
 271    4.7586627144489e-05
 272    -0.00056248952306785
 273    0.00028560748168038
 274    -0.00012182747946611
 275    -2.7914984075651e-05
 276    2.3533933443438e-05
 277    -0.00043537041975468
 278    0.0043299130484182
 279    -9.3671552706915e-05
 280    4.7524990099051e-05
 281    0.00024004156658242
 282    0.00016551372316601
 283    0.0022901724906113
 284    7.9663051098468e-05
 285    1.0875155810789e-05
 286    -0.00011263816211608
 Sym= A
 Ene=               1
 Spin= Alpha
 Occup=    1.00000
   1    -9.6098973015541e-05
   2    0.00029456509871583
   3    -0.0012429722625455
   4    0.0027927902244729
   5    -0.0094906160976437
   6    -0.00069511901841182
   7    0.0011364228183028
   8    0.00044322704497372
   9    0.0021962192071249
  10    -0.0035895212570274
  11    -0.0014504820922162
  12    -0.0046146079781038
  13    0.0082360985246616
  14    0.0050575202459938
  15    0.0044232487161628
  16     -0.64349612755976
  17     -0.36956541682106
  18     -0.18953514876591
  19      0.43069505437887
  20    0.0010095458321605
  21     -0.17130474692904
  22    -0.097519375729812
  23    -0.050331546429792
  24      0.11381017324964
  25    0.00018755709865048
  26    -0.00036098558974675
  27    -0.00016213927359387
  28    0.00012767147843545
  29    -0.00026476914368434
  30    -0.00029860099820532
  31    -0.00013668705440676
  32    0.00030046560355911
  33    0.0020027841416091
  34    -0.0034117573996454
  35    -0.0019351481720244
  36    -0.00094536990995672
  37        0.010536577078
  38    -0.024356001504266
  39    -0.0015368341166627
  40     0.017615809729843
  41    -0.041046874093353
  42    -0.0048051540313217
  43     0.033324804650134
  44    -0.073321949970626
  45    0.0023475782712121
  46    -0.0015936467491805
  47    0.0014337067541008
  48    0.00093642178659859
  49    0.00057818163468571
  50    0.00029161650813365
  51    0.0019298371869566
  52    -0.0030438738097927
  53    -0.0018054137612073
  54    0.0026172470166015
  55    -0.016800601253327
  56     0.016969094848915
  57    0.0043839845873045
  58    -0.028395516308866
  59     0.028506654758201
  60    0.0088897023243993
  61    -0.049012303711509
  62     0.053456294647301
  63    -0.0024436967707641
  64    -0.00037187617716999
  65    -0.0007323177708205
  66    -0.0020222361751435
  67    0.00014380233486093
  68    -0.00053117460162778
  69    0.0015108072049899
  70    -0.0074043930712588
  71     0.011121497764019
  72    0.0047291661063614
  73    -0.00016996879031811
  74    0.0010358068525804
  75    0.00050247591339044
  76    0.00056164890720808
  77    -0.0033925619342703
  78    -0.0016577988457013
  79    -0.00098044836522057
  80    0.0064716860720401
  81    0.0031698287876788
  82    -0.0013024577580928
  83    0.0018247077518549
  84    0.0018563500641826
  85    0.00062487609971792
  86    -0.0015761300758116
  87    -0.002137570611281
  88    0.0042462102512945
  89    0.0023348179490486
  90    0.0030512215985976
  91    -0.0018444171324628
  92    -3.3682652602119e-05
  93    0.00028324255355994
  94    6.5330734559835e-06
  95    2.7803815640064e-05
  96    0.00019020055816325
  97    2.9811593610315e-05
  98    0.0003004694584925
  99    -0.00062380999288785
 100    -0.0040594732120023
 101    0.0050660917922141
 102    0.0090728578262592
 103    0.0079710959573464
 104     0.012174500070371
 105    -0.0010854804220985
 106     0.013679511078833
 107     0.020904698556763
 108    -0.0020275560770479
 109     0.020354549251492
 110     0.036964605216333
 111    -0.0019645989569974
 112    0.0012109885436935
 113    0.0024203808677025
 114    0.00075048245463056
 115    -0.0022481074322169
 116    0.00098983563653318
 117    -0.00060691292306336
 118    -0.0039281897483256
 119    0.0042679147417709
 120       0.0087779802589
 121    -0.014307052152511
 122    -0.0044600479777697
 123    0.0097176673693777
 124    -0.024607873998163
 125    -0.0077154346651604
 126     0.016746668309467
 127    -0.041448353768464
 128    -0.011838364572035
 129     0.030021971278417
 130    0.00022768619428922
 131    -0.00072283245822989
 132    -0.00078126662244971
 133    0.0015542068092756
 134    -0.0024840871873838
 135    0.00028126777786167
 136    0.0018446150962689
 137    -0.002354615090372
 138    -0.0051212311868972
 139    0.00060217738489136
 140    3.3768074237321e-05
 141    -0.001492574530958
 142    0.0016105774261547
 143    5.6359333275819e-05
 144    -0.002760787178266
 145    -0.0020300986876633
 146    -3.2500528019641e-06
 147    -0.0038301816442181
 148    -0.00012611306268061
 149    -0.00075147078389917
 150    0.00013918809336393
 151    0.00044208142302996
 152    -0.00037971164890478
 153    0.00021394778861523
 154    0.0013941862787626
 155    -0.001617076372236
 156    -0.0043011371995057
 157    -0.00035089410625651
 158    -0.0012451789934569
 159    0.00052463518965221
 160    -0.0010492028882342
 161    -0.0023975574941131
 162    0.00090024204429227
 163    0.0019332371731725
 164    -0.0023009591434191
 165    0.0017023333357348
 166    -0.00027016044162347
 167    0.00016932564498926
 168    0.00013761822136922
 169    -0.00017631414041136
 170    0.00073384286977599
 171    0.0020493963699721
 172    -0.0039551933669533
 173    -0.011176033305182
 174    0.0046041762564331
 175    0.0068040807390084
 176    0.0011199991536019
 177    0.0024346594867761
 178    0.0047389907966808
 179    -0.00057878652814472
 180    -0.0010633928023015
 181    -0.00029017265887807
 182    -0.00060621879643842
 183    0.00048510535973208
 184    0.00057521197248657
 185    0.0072953751464571
 186    0.0070976729942111
 187    -9.1812522584964e-05
 188    0.00031771933664049
 189    0.00035682876996012
 190    -0.00042187824129479
 191    0.00073139218505393
 192    0.0001212629557199
 193    6.9489286331449e-05
 194    -0.00014093086686733
 195     -0.00319259028432
 196    0.0056461664958638
 197    0.00012413370806696
 198    -0.00025381245082278
 199    0.00027456229436646
 200    0.0028971343101417
 201    -0.0062045996195823
 202    -0.0083734546685365
 203    -0.011779863345227
 204    -0.0013580786621371
 205    0.0042341253026766
 206    -0.0081942144925583
 207    -0.0041410560795271
 208    0.0018932286488582
 209    0.00052241284145553
 210    -0.0003905861788156
 211    0.00046550409825857
 212    -0.0001853549054069
 213    0.0011769923355993
 214    0.0048194734718527
 215    0.0010578865929313
 216    -0.00040874466484297
 217    0.00030804516815996
 218    0.00037206534419756
 219    0.0039855861443089
 220    0.0038865651166592
 221    -0.0001868825093207
 222    -0.00014890105606589
 223    -7.7485302717584e-05
 224    -0.0042680240529044
 225    0.0055258709340908
 226    -4.0306642529338e-05
 227    0.00026060309552578
 228    -0.00038263829085115
 229    -0.00082879094683462
 230    0.00087808107937304
 231     0.011933207852771
 232    0.00087394833052673