[Molden Format]
made by pyscf v[2.2.1]
[Atoms] (AU)
Fe   1   26    10.35569916261654     2.17318504324982   -15.17450078025744
S   2   16     7.65339080448850    -1.15273293598469   -16.53510358994429
S   3   16    14.15404867299231     0.79368497231733   -17.08312416606816
Fe   4   26    11.41394579237297    -2.30546587196938   -18.19806257956155
S   5   16    10.33680190137089     2.36215765570633   -10.54467177507304
S   6   16     8.74943195673624     6.19830168857340   -16.57289811243559
S   7   16    10.86592521624911    -2.83458918684759   -22.77119980100900
S   8   16    12.96352121451632    -6.44396608476686   -16.74297346364645
C   9   6    10.41239094635349     8.40928125431453   -14.19184319548361
H   10   1    12.26432254842725     9.12737718164925   -14.96663090655529
H   11   1     9.20296622663185    10.07224024393178   -13.70051440309670
H   12   1    10.80923343251215     7.25654831832984   -12.45329516088376
C   13   6     6.80301404843422     3.21253441176060   -10.46908273009044
H   14   1     5.68807563494084     1.51178089965205   -10.99820604496866
H   15   1     6.19830168857340     3.89283581660403    -8.54156208303408
H   16   1     6.46286334601251     4.68652078892135   -11.92417184600554
C   17   6     9.84547310898397    -7.97464424566456   -17.87680913838549
H   18   1     9.63760323528181    -7.57780175950590   -19.93661061416140
H   19   1     9.84547310898397   -10.05334298268613   -17.49886391347247
H   20   1     8.25810316434932    -7.02978118338203   -16.87525429236600
C   21   6    14.41861033043142    -3.49599333044536   -23.13024776467636
H   22   1    14.92883638406399    -3.89283581660403   -25.15225471796098
H   23   1    15.49575422143351    -1.81413707958246   -22.41215183734163
H   24   1    14.90993912281834    -5.14005505881697   -21.90192578370907
[GTO]
1 0
 s    6 1.00
          60923.640643  0.0017552243692958
          9147.8893982   0.013449023284001
          2081.3505927   0.066678874640978
          587.55977067    0.23176348548844
           191.0904399    0.46945550248188
          65.732730112     0.3596824938678
 s    3 1.00
          127.25891928   -0.10723431835929
           14.83091301    0.62971616328466
          6.0653307408    0.44472317896179
 s    3 1.00
           10.44994371   -0.21694289195548
          1.7245228003    0.69457867408393
         0.71772177325    0.43298308896347
 s    1 1.00
        0.091449828308                   1
 s    1 1.00
        0.033706691021                   1
 p    5 1.00
          773.43750995  0.0091440529992506
          182.15149714   0.067887577136571
          57.547272758    0.26167978878504
          20.614988935    0.51088040113251
           7.634855789    0.33235475570224
 p    3 1.00
           3.871932799    0.33193859098144
          1.4924724132     0.5553666555499
         0.56061284958    0.23106034201617
 p    1 1.00
              0.134915                   1
 d    4 1.00
          38.968133419   0.033335938558743
          10.800067078    0.17766212505983
          3.6136457999      0.441281781625
          1.2129967888    0.57089200490673
 d    1 1.00
          0.3652439317                   1
 f    1 1.00
                 1.598                   1

2 0
 s    5 1.00
           9184.930301  -0.0054729466134731
          1381.5105503  -0.040954402155135
           313.8714758   -0.18475828956188
          88.053870623   -0.47567280643953
          27.039914905   -0.43495153584169
 s    3 1.00
          45.648731303  -0.091904045808942
          4.9664522326    0.55698777214497
          2.0116242047     0.5111546829846
 s    1 1.00
         0.35661077013                   1
 s    1 1.00
         0.13507221477                   1
 p    5 1.00
          261.98233439  -0.009183054659266
          61.306894736   -0.06590222652599
          19.103729887   -0.24587784518735
          6.6567720378    -0.4823147107602
          2.3959635161   -0.38956314351423
 p    1 1.00
         0.61776161679                   1
 p    1 1.00
         0.16993376871                   1
 d    1 1.00
                  0.55                   1

3 0
 s    5 1.00
           9184.930301  -0.0054729466134731
          1381.5105503  -0.040954402155135
           313.8714758   -0.18475828956188
          88.053870623   -0.47567280643953
          27.039914905   -0.43495153584169
 s    3 1.00
          45.648731303  -0.091904045808942
          4.9664522326    0.55698777214497
          2.0116242047     0.5111546829846
 s    1 1.00
         0.35661077013                   1
 s    1 1.00
         0.13507221477                   1
 p    5 1.00
          261.98233439  -0.009183054659266
          61.306894736   -0.06590222652599
          19.103729887   -0.24587784518735
          6.6567720378    -0.4823147107602
          2.3959635161   -0.38956314351423
 p    1 1.00
         0.61776161679                   1
 p    1 1.00
         0.16993376871                   1
 d    1 1.00
                  0.55                   1

4 0
 s    6 1.00
          60923.640643  0.0017552243692958
          9147.8893982   0.013449023284001
          2081.3505927   0.066678874640978
          587.55977067    0.23176348548844
           191.0904399    0.46945550248188
          65.732730112     0.3596824938678
 s    3 1.00
          127.25891928   -0.10723431835929
           14.83091301    0.62971616328466
          6.0653307408    0.44472317896179
 s    3 1.00
           10.44994371   -0.21694289195548
          1.7245228003    0.69457867408393
         0.71772177325    0.43298308896347
 s    1 1.00
        0.091449828308                   1
 s    1 1.00
        0.033706691021                   1
 p    5 1.00
          773.43750995  0.0091440529992506
          182.15149714   0.067887577136571
          57.547272758    0.26167978878504
          20.614988935    0.51088040113251
           7.634855789    0.33235475570224
 p    3 1.00
           3.871932799    0.33193859098144
          1.4924724132     0.5553666555499
         0.56061284958    0.23106034201617
 p    1 1.00
              0.134915                   1
 d    4 1.00
          38.968133419   0.033335938558743
          10.800067078    0.17766212505983
          3.6136457999      0.441281781625
          1.2129967888    0.57089200490673
 d    1 1.00
          0.3652439317                   1
 f    1 1.00
                 1.598                   1

5 0
 s    5 1.00
           9184.930301  -0.0054729466134731
          1381.5105503  -0.040954402155135
           313.8714758   -0.18475828956188
          88.053870623   -0.47567280643953
          27.039914905   -0.43495153584169
 s    3 1.00
          45.648731303  -0.091904045808942
          4.9664522326    0.55698777214497
          2.0116242047     0.5111546829846
 s    1 1.00
         0.35661077013                   1
 s    1 1.00
         0.13507221477                   1
 p    5 1.00
          261.98233439  -0.009183054659266
          61.306894736   -0.06590222652599
          19.103729887   -0.24587784518735
          6.6567720378    -0.4823147107602
          2.3959635161   -0.38956314351423
 p    1 1.00
         0.61776161679                   1
 p    1 1.00
         0.16993376871                   1
 d    1 1.00
                  0.55                   1

6 0
 s    5 1.00
           9184.930301  -0.0054729466134731
          1381.5105503  -0.040954402155135
           313.8714758   -0.18475828956188
          88.053870623   -0.47567280643953
          27.039914905   -0.43495153584169
 s    3 1.00
          45.648731303  -0.091904045808942
          4.9664522326    0.55698777214497
          2.0116242047     0.5111546829846
 s    1 1.00
         0.35661077013                   1
 s    1 1.00
         0.13507221477                   1
 p    5 1.00
          261.98233439  -0.009183054659266
          61.306894736   -0.06590222652599
          19.103729887   -0.24587784518735
          6.6567720378    -0.4823147107602
          2.3959635161   -0.38956314351423
 p    1 1.00
         0.61776161679                   1
 p    1 1.00
         0.16993376871                   1
 d    1 1.00
                  0.55                   1

7 0
 s    5 1.00
           9184.930301  -0.0054729466134731
          1381.5105503  -0.040954402155135
           313.8714758   -0.18475828956188
          88.053870623   -0.47567280643953
          27.039914905   -0.43495153584169
 s    3 1.00
          45.648731303  -0.091904045808942
          4.9664522326    0.55698777214497
          2.0116242047     0.5111546829846
 s    1 1.00
         0.35661077013                   1
 s    1 1.00
         0.13507221477                   1
 p    5 1.00
          261.98233439  -0.009183054659266
          61.306894736   -0.06590222652599
          19.103729887   -0.24587784518735
          6.6567720378    -0.4823147107602
          2.3959635161   -0.38956314351423
 p    1 1.00
         0.61776161679                   1
 p    1 1.00
         0.16993376871                   1
 d    1 1.00
                  0.55                   1

8 0
 s    5 1.00
           9184.930301  -0.0054729466134731
          1381.5105503  -0.040954402155135
           313.8714758   -0.18475828956188
          88.053870623   -0.47567280643953
          27.039914905   -0.43495153584169
 s    3 1.00
          45.648731303  -0.091904045808942
          4.9664522326    0.55698777214497
          2.0116242047     0.5111546829846
 s    1 1.00
         0.35661077013                   1
 s    1 1.00
         0.13507221477                   1
 p    5 1.00
          261.98233439  -0.009183054659266
          61.306894736   -0.06590222652599
          19.103729887   -0.24587784518735
          6.6567720378    -0.4823147107602
          2.3959635161   -0.38956314351423
 p    1 1.00
         0.61776161679                   1
 p    1 1.00
         0.16993376871                   1
 d    1 1.00
                  0.55                   1

9 0
 s    5 1.00
          1238.4016938  0.0055173650481097
          186.29004992   0.041088828555946
          42.251176346     0.1822538212649
          11.676557932    0.46828459437429
          3.5930506482    0.44575817336002
 s    1 1.00
         0.40245147363                   1
 s    1 1.00
         0.13090182668                   1
 p    3 1.00
          9.4680970621   0.056888332011037
          2.0103545142    0.31294059336471
         0.54771004707    0.76065016509135
 p    1 1.00
         0.15268613795                   1
 d    1 1.00
                   0.8                   1

10 0
 s    3 1.00
             13.010701   0.033485484812989
             1.9622572    0.23472187088125
            0.44453796    0.81377028525955
 s    1 1.00
            0.12194962                   1
 p    1 1.00
                   0.8                   1

11 0
 s    3 1.00
             13.010701   0.033485484812989
             1.9622572    0.23472187088125
            0.44453796    0.81377028525955
 s    1 1.00
            0.12194962                   1
 p    1 1.00
                   0.8                   1

12 0
 s    3 1.00
             13.010701   0.033485484812989
             1.9622572    0.23472187088125
            0.44453796    0.81377028525955
 s    1 1.00
            0.12194962                   1
 p    1 1.00
                   0.8                   1

13 0
 s    5 1.00
          1238.4016938  0.0055173650481097
          186.29004992   0.041088828555946
          42.251176346     0.1822538212649
          11.676557932    0.46828459437429
          3.5930506482    0.44575817336002
 s    1 1.00
         0.40245147363                   1
 s    1 1.00
         0.13090182668                   1
 p    3 1.00
          9.4680970621   0.056888332011037
          2.0103545142    0.31294059336471
         0.54771004707    0.76065016509135
 p    1 1.00
         0.15268613795                   1
 d    1 1.00
                   0.8                   1

14 0
 s    3 1.00
             13.010701   0.033485484812989
             1.9622572    0.23472187088125
            0.44453796    0.81377028525955
 s    1 1.00
            0.12194962                   1
 p    1 1.00
                   0.8                   1

15 0
 s    3 1.00
             13.010701   0.033485484812989
             1.9622572    0.23472187088125
            0.44453796    0.81377028525955
 s    1 1.00
            0.12194962                   1
 p    1 1.00
                   0.8                   1

16 0
 s    3 1.00
             13.010701   0.033485484812989
             1.9622572    0.23472187088125
            0.44453796    0.81377028525955
 s    1 1.00
            0.12194962                   1
 p    1 1.00
                   0.8                   1

17 0
 s    5 1.00
          1238.4016938  0.0055173650481097
          186.29004992   0.041088828555946
          42.251176346     0.1822538212649
          11.676557932    0.46828459437429
          3.5930506482    0.44575817336002
 s    1 1.00
         0.40245147363                   1
 s    1 1.00
         0.13090182668                   1
 p    3 1.00
          9.4680970621   0.056888332011037
          2.0103545142    0.31294059336471
         0.54771004707    0.76065016509135
 p    1 1.00
         0.15268613795                   1
 d    1 1.00
                   0.8                   1

18 0
 s    3 1.00
             13.010701   0.033485484812989
             1.9622572    0.23472187088125
            0.44453796    0.81377028525955
 s    1 1.00
            0.12194962                   1
 p    1 1.00
                   0.8                   1

19 0
 s    3 1.00
             13.010701   0.033485484812989
             1.9622572    0.23472187088125
            0.44453796    0.81377028525955
 s    1 1.00
            0.12194962                   1
 p    1 1.00
                   0.8                   1

20 0
 s    3 1.00
             13.010701   0.033485484812989
             1.9622572    0.23472187088125
            0.44453796    0.81377028525955
 s    1 1.00
            0.12194962                   1
 p    1 1.00
                   0.8                   1

21 0
 s    5 1.00
          1238.4016938  0.0055173650481097
          186.29004992   0.041088828555946
          42.251176346     0.1822538212649
          11.676557932    0.46828459437429
          3.5930506482    0.44575817336002
 s    1 1.00
         0.40245147363                   1
 s    1 1.00
         0.13090182668                   1
 p    3 1.00
          9.4680970621   0.056888332011037
          2.0103545142    0.31294059336471
         0.54771004707    0.76065016509135
 p    1 1.00
         0.15268613795                   1
 d    1 1.00
                   0.8                   1

22 0
 s    3 1.00
             13.010701   0.033485484812989
             1.9622572    0.23472187088125
            0.44453796    0.81377028525955
 s    1 1.00
            0.12194962                   1
 p    1 1.00
                   0.8                   1

23 0
 s    3 1.00
             13.010701   0.033485484812989
             1.9622572    0.23472187088125
            0.44453796    0.81377028525955
 s    1 1.00
            0.12194962                   1
 p    1 1.00
                   0.8                   1

24 0
 s    3 1.00
             13.010701   0.033485484812989
             1.9622572    0.23472187088125
            0.44453796    0.81377028525955
 s    1 1.00
            0.12194962                   1
 p    1 1.00
                   0.8                   1

[5d]
[7f]
[9g]

[MO]
 Sym= A
 Ene=               0
 Spin= Alpha
 Occup=    1.00000
   1    -0.0008803559778141
   2    0.0026383471271641
   3    -0.011627025943606
   4     0.021462112638563
   5    -0.022045187317442
   6    4.5311178345609e-06
   7    -0.00030637390421382
   8    -4.7791300123794e-05
   9    2.6314557316971e-05
  10    0.00083998514004358
  11    7.8830837006725e-05
  12    -0.0009852228049102
  13       0.0037241113277
  14    0.0021222210988782
  15     -0.08982138167844
  16      0.27847960614801
  17     -0.57320730795681
  18       0.5714781058836
  19      0.17517139371635
  20    -0.022500871252935
  21     0.076436050072764
  22     -0.15554367767716
  23      0.15417224653678
  24     0.046616412780603
  25    0.00012850934120049
  26    0.00011027263842312
  27    -2.1860779825581e-05
  28    0.00033678750744518
  29    0.00018167641334798
  30    -4.1718425948414e-05
  31    0.00039130090983641
  32    0.00091662106484427
  33    0.0061480898309755
  34    -0.010672303786781
  35    -0.0096188202306744
  36     0.019758719663034
  37    -0.0089506454904504
  38    -0.0049262441695565
  39     0.033307006656759
  40    -0.015447645208956
  41    -0.0085189126486847
  42     0.052194614593753
  43    -0.024763939653039
  44    -0.011113126180859
  45    -0.0011438102063637
  46    -0.0020220837135065
  47    0.0015402550509033
  48    0.00031038879107998
  49    -0.0027136539397648
  50    0.00095121054447881
  51    0.0063680499319297
  52    -0.010948896259091
  53    -0.0098078757372278
  54    -0.014783405832368
  55    -0.013009676836852
  56    -0.012200929057135
  57    -0.024771501498198
  58    -0.022228847797377
  59    -0.020758532806744
  60    -0.039427622345765
  61    -0.032792001206676
  62    -0.035256555175441
  63    -0.00015827873574623
  64    0.0011857115083173
  65    0.0027535802691213
  66    -0.001606190592441
  67    0.0020637104625906
  68    -0.0022822659213969
  69    0.0065115921625094
  70    -0.031723881391504
  71     0.055386597335764
  72    -0.010153265163548
  73    -0.0008452352075154
  74    0.0036620157715241
  75    0.0022556412090981
  76    0.0027739583871986
  77    -0.011999374614205
  78    -0.0074064511251721
  79    -0.0044747589934216
  80     0.019151335946386
  81     0.011593709500924
  82    -0.0026103314032649
  83    -0.0026355441358296
  84    0.0057576536203451
  85    -0.0016618480014542
  86    -0.000137100478624
  87    -0.0042938748766183
  88    -0.0034892341472889
  89    0.0024050290666753
  90    0.0028445948504524
  91    0.0033921432916742
  92    5.9778462481742e-05
  93    -4.7221859878992e-05
  94    -0.0002223056275129
  95    0.00046226923391847
  96    0.0001597014720261
  97    -0.00041283895353744
  98    0.00035515759644718
  99    -0.00013303897339528
 100    -0.00077070240807923
 101    -0.0010122158460688
 102    0.0040320857836555
 103    0.00029800960791154
 104     0.015361078894897
 105    -0.0073412745938283
 106    0.00030386735992094
 107     0.026628587932566
 108    -0.012337783499666
 109    0.0035193348366598
 110     0.043907466222408
 111    -0.023414043593186
 112    -0.00038847515271521
 113    -0.0012547104777609
 114    0.0018975534326888
 115     0.001011243306603
 116    -0.00085269758857922
 117    0.00045735215559606
 118    0.0030606267226804
 119    -0.0056437802229327
 120    -0.0033780408608418
 121    -0.00048927446442148
 122    -0.0017944692394362
 123     0.010646444903647
 124    -0.00081985149015716
 125    -0.0026772034639737
 126     0.018538587136061
 127    -0.0032771854499135
 128    -0.0090131136404832
 129     0.028353585580334
 130    -0.0011512806834955
 131    0.00021395697973492
 132     0.003183739718526
 133    -0.0018810996302828
 134    0.0014562662561537
 135    0.00048965899674705
 136    0.0032450222675009
 137    -0.0056729390541565
 138    -0.0027929384095128
 139    -0.00030744050510843
 140    -0.0014655018789694
 141    -0.0044556113555377
 142    -0.00057175401157847
 143    -0.0026284142957173
 144    -0.0077704471203394
 145    -0.0013120474495313
 146    -0.0044535478417827
 147    -0.013954220979621
 148    -9.2019112020505e-05
 149    -0.00030793005807607
 150    0.00047535160869945
 151    2.0590546805696e-05
 152    -6.1254477726354e-06
 153    0.0004377714905053
 154    0.0029005024583234
 155    -0.0051903628620817
 156    -0.0019038106500483
 157    0.0014605816563631
 158    -0.0041690781568952
 159    0.00060286226755402
 160    0.0026085203927168
 161    -0.0072757743937575
 162    0.0010155606667024
 163    0.0046319706251059
 164    -0.012714037868601
 165     0.001840955102212
 166    -0.00029333884471067
 167    -0.0001295607791309
 168    0.00032057801669218
 169    -0.00016244149202874
 170    5.0197044370385e-05
 171    -0.002329490134412
 172     0.006013960627577
 173    -0.0021902036470355
 174    -0.0052806389884756
 175    -0.008986480580817
 176    -0.010019483219995
 177    -0.0057247209443046
 178    -0.0027746762646904
 179      -0.0094213697315
 180    -0.00022306456717193
 181    0.00043168059465203
 182    0.00048336789049935
 183    5.2614336834966e-05
 184    0.00079862205930163
 185    -5.9329230699553e-05
 186    0.0022413107134039
 187    3.5453942153899e-05
 188    -0.00030539131139908
 189    -0.00014719909478611
 190    -0.0041464605992095
 191    -0.0021976019426863
 192    -0.00031258614573608
 193    -4.845677673298e-05
 194    -0.00013791569108025
 195    -0.0014312962943541
 196    0.0055865555229897
 197    -1.6242659408975e-05
 198    -6.1413121860544e-05
 199    0.00014417108567112
 200    -0.0014432535824817
 201    0.0032593206580059
 202    0.0019326449501571
 203    0.0072364500392316
 204    -0.0042418132590478
 205    -0.00026047801136375
 206    0.0039569671084567
 207    -0.0026687330423104
 208    0.0012942548387169
 209    -0.00046872984880281
 210    -0.00017040310023308
 211    0.00021601029533186
 212    0.0007786042017656
 213    0.00076515621711473
 214    0.0026977648098729
 215       0.0023596402884
 216    7.9178662789757e-05
 217    0.00011065673251747
 218    0.00012288095646072
 219    -0.0020633287533849
 220    -0.00089955852904958
 221    0.00011410988088717
 222    -0.00011003587473628
 223    8.8876559342808e-05
 224    -0.0044324061348138
 225    -0.0021948044473967
 226    5.7926085988259e-05
 227    0.00022336107523134
 228    -0.00018997936087915
 229    0.00028704541159007
 230    -0.00052483788667549
 231    -0.0036017613604376
 232    0.0013652633246971
 233    -0.00055330941066823
 234    -0.00056923423029482
 235    0.0021791225810963
 236    7.5982044283935e-05
 237    -0.00011879328066636
 238    2.309671954492e-05
 239    7.4047358544626e-05
 240    -3.1375979480118e-05
 241    0.00014112998481915
 242    -0.00020383496438961
 243    0.0001015459712761
 244    0.0024045218491288
 245    -4.9647194898459e-05
 246    -0.00011556979997333
 247    4.1237643526421e-05
 248    -0.00042425097885069
 249    0.00050191038750397
 250    0.00011678805138283
 251    4.0085882105802e-05
 252    -1.9212656710402e-05
 253    -0.00044054176316277
 254    0.0033587699583786
 255    7.3659767039097e-06
 256    0.00025433908575756
 257    -2.7462490941121e-05
 258    0.00024381701566423
 259    -0.0003832561765439
 260    -0.003780410963734
 261    -0.0012568730568565
 262    -0.0011489226693708
 263    -0.00049353761046265
 264    -0.0025600973232085
 265    -0.0010467760826323
 266    -0.00035577483470268
 267    -3.2930530593375e-05
 268    0.00027894559348728
 269    -3.0158578655821e-05
 270    2.7217870883736e-05
 271    4.4346071580998e-05
 272    -0.0005479107616232
 273    0.00027212779841158
 274    -0.00012107151921895
 275    -2.8403919035854e-05
 276    2.3217217845427e-05
 277    -0.00047251496321711
 278    0.0042257959889959
 279    -9.1272083546833e-05
 280    4.8384949538434e-05
 281    0.00023811777722198
 282    0.00016822774270609
 283    0.0022553530672405
 284    7.920477722136e-05
 285    1.030438482368e-05
 286    -0.00011205634434685
 Sym= A
 Ene=               1
 Spin= Alpha
 Occup=    1.00000
   1    -9.7506446993669e-05
   2    0.00029812518210666
   3    -0.0012644377524116
   4    0.0028844204027375
   5    -0.0094303553850797
   6    -0.00069398724433293
   7     0.001136579689885
   8    0.00044169133643512
   9    0.0021926978590875
  10    -0.0035899825285475
  11    -0.0014459222550576
  12    -0.0046219184909573
  13    0.0082150011028369
  14    0.0050521972219441
  15    0.0044400414131104
  16     -0.64384886469955
  17     -0.36968771724366
  18     -0.18968069750799
  19      0.43089762699205
  20    0.0010205464630129
  21     -0.17159674735287
  22    -0.097633887747994
  23    -0.050443052683029
  24      0.11398750672069
  25    0.00018582381234355
  26    -0.00035176742406927
  27    -0.00015965289429865
  28    0.00012502982045248
  29    -0.00026081990525348
  30    -0.00029354665000955
  31    -0.00013139721161465
  32    0.00030273376895679
  33     0.002017686791663
  34    -0.0034324197840384
  35    -0.0019266008065684
  36    -0.00073970670663557
  37    0.0098631359590937
  38    -0.023023843214505
  39    -0.0011618021853988
  40     0.016332225755734
  41    -0.038511496779704
  42    -0.0043575518192849
  43      0.03245035631258
  44    -0.071847413006009
  45    0.0023276944351085
  46    -0.0014804573717887
  47    0.0014706079621292
  48    0.0009690435254318
  49    0.00052382257036548
  50    0.00029382664570517
  51    0.0019438906925133
  52    -0.0030640556517716
  53    -0.0017740528173763
  54    0.0023844500286069
  55    -0.015978812903728
  56     0.015907297212078
  57    0.0039416741226763
  58    -0.026777551279791
  59     0.026465251464474
  60    0.0084698077337817
  61     -0.04815453536973
  62     0.052075694940585
  63    -0.0024509660509758
  64    -0.00028325456399584
  65    -0.000693002542122
  66    -0.0019747484219855
  67    7.9357583964946e-05
  68    -0.00053563895962859
  69    0.0015247242714632
  70    -0.0074618083130628
  71     0.011105335847621
  72    0.0044652779780297
  73    -0.00017394040454688
  74    0.0010360509085976
  75    0.00050344542815985
  76    0.00057464197102197
  77    -0.0033944898156831
  78    -0.0016623873706362
  79    -0.00098491127162381
  80    0.0063774991939491
  81    0.0031667480023704
  82    -0.0014171203737572
  83    0.0012069826459158
  84    0.0018381884640212
  85    0.0005375255588174
  86    -0.0010050229136619
  87    -0.0023271766398342
  88    0.0042703686508382
  89    0.0025059166431032
  90    0.0031487546677016
  91    -0.0018112299624525
  92    -3.1154207869545e-05
  93    0.00027233832856256
  94    5.0846588532979e-06
  95    3.0392627326592e-05
  96    0.00018432135764984
  97    2.575019856397e-05
  98    0.00029207756514408
  99    -0.00062458753543981
 100    -0.0040635583872481
 101    0.0050511253696341
 102     0.009136169758448
 103    0.0079725869787007
 104      0.01217885899213
 105    -0.0010855186694209
 106     0.013700629101059
 107     0.020915915266708
 108    -0.0020279138458534
 109     0.020271855183974
 110     0.036974647037363
 111    -0.0019462298563914
 112    0.0012144933304872
 113    0.0024392978756852
 114    0.00076010598783587
 115    -0.0022556585550137
 116    0.00099992186346532
 117    -0.00060791645258034
 118    -0.0039348939097829
 119    0.0042621164755133
 120     0.008854180716828
 121    -0.014315209185142
 122    -0.0044581759632795
 123    0.0097270164055723
 124    -0.024638317747649
 125    -0.0077244328375195
 126     0.016758453007641
 127    -0.041404370889129
 128    -0.011772016987625
 129     0.030096029815249
 130    0.00022923705279542
 131    -0.00072435322395066
 132    -0.00078297829003908
 133    0.0015684560415885
 134    -0.0025012387677204
 135    0.00028037486702835
 136    0.0018386869330697
 137    -0.002367887426899
 138    -0.0049971509616095
 139    0.00061124715345059
 140    4.2481567582907e-05
 141    -0.0014912710592418
 142     0.001609169934512
 143    6.9587407261901e-05
 144    -0.0027553063338508
 145    -0.0019171481892073
 146    2.9063042439132e-05
 147    -0.0038254155280461
 148    -0.00013188707539919
 149    -0.00072727292255005
 150    0.00013782518629207
 151    0.00043717178964177
 152    -0.00036713418799922
 153    0.0002123002850484
 154    0.0013836676116528
 155    -0.0016233858535173
 156    -0.0041887409511223
 157    -0.00035843213742794
 158    -0.0012375351251552
 159    0.00052853224859037
 160    -0.0010477204047842
 161    -0.002377587093349
 162    0.00090712032936594
 163    0.0018409577934538
 164    -0.0023094354696133
 165    0.0017063734298348
 166    -0.00026622524697377
 167    0.00016570999174672
 168    0.00013719375862758
 169    -0.000160979981647
 170    0.00071142748719378
 171    0.0020575048049617
 172    -0.0039566617078511
 173    -0.011350258421105
 174     0.004611852002282
 175    0.0068205680023234
 176    0.0011321922304936
 177    0.0024460926781282
 178    0.0047584003262193
 179    -0.00051779024484057
 180    -0.0010647577225797
 181    -0.00029085325515852
 182    -0.00060880937770812
 183    0.00048551141904546
 184    0.00057455440830161
 185    0.0073045035060646
 186    0.0071673105412747
 187    -9.4082667167152e-05
 188    0.00031734737832264
 189    0.00035655414818688
 190    -0.00041597540248052
 191    0.00076254159167866
 192     0.000121555057168
 193    6.9042329359351e-05
 194    -0.00014298530331581
 195    -0.0031960087099953
 196    0.0056555300497529
 197    0.00012424771517973
 198    -0.00025511666464767
 199    0.00027504021984905
 200    0.0029072624320551
 201    -0.0062116616236525
 202    -0.0086384676182541
 203    -0.011809167133268
 204    -0.0013573390431692
 205     0.004236827244827
 206    -0.0081898232512786
 207    -0.004077993324133
 208    0.0018552048351299
 209    0.00052469183606733
 210    -0.00039133268205836
 211    0.00046582175534159
 212    -0.00018784343427511
 213    0.0011781240757824
 214    0.0048404566208009
 215    0.0012776834224264
 216    -0.00040232969271054
 217    0.00030922080961885
 218    0.00036986622318943
 219    0.0040034386054951
 220    0.0039557095191545
 221    -0.00018680768965996
 222    -0.00015070834203792
 223    -7.8631840938012e-05
 224    -0.004273048550438
 225    0.0055146227505326
 226    -4.1893170458539e-05
 227    0.00026276498880755
 228    -0.00038362233168105
 229    -0.00081854744853269
 230    0.00087685238775305
 231      0.01159192807448
 232    0.00084727600029314