[Molden Format]
made by pyscf v[2.2.1]
[Atoms] (AU)
Fe   1   26     3.17068844873907     0.00098706064664     0.12237737881307
O   2   8     0.00000000000000     0.00000000000000    -0.89004350580623
Fe   3   26    -3.17068844873907    -0.00098706064664     0.12237737881307
Cl   4   17     3.53383895113107    -2.07485195383062     3.76228752659000
Cl   5   17     5.54152580550813    -1.85590924879884    -2.78672786652360
Cl   6   17     4.48169216485503     3.92976278472880    -0.95330240907949
Cl   7   17    -3.53383895113107     2.07485195383062     3.76228752659000
Cl   8   17    -5.54152580550813     1.85590924879884    -2.78672786652360
Cl   9   17    -4.48169216485503    -3.92976278472880    -0.95330240907949
[GTO]
1 0
 s    8 1.00
          300784.84637  0.00024103305017787
          45088.970557  0.0018687382457119
          10262.516317  0.0097155134617046
          2905.2897293   0.039479967013317
          946.11487137    0.12842162832271
          339.87832894    0.30457860754832
          131.94425588    0.43465553776779
          52.111494077    0.22742382379948
 s    4 1.00
          329.48839267  -0.024716645792921
          101.92332739   -0.11669599822835
          16.240462745    0.55229779440271
          6.8840675801    0.53539752037712
 s    2 1.00
          10.470693782   -0.37745869768095
          1.7360039648     1.1722622909796
 s    1 1.00
         0.72577288979                   1
 s    1 1.00
         0.11595528203                   1
 s    1 1.00
        0.041968227746                   1
 p    6 1.00
           1585.395997  0.0027395641750272
          375.38006499   0.022167496552173
          120.31816501    0.10364840341367
          44.788749031    0.29703230666936
          17.829278584    0.47773374381763
          7.2247153786    0.27871749884095
 p    3 1.00
          28.143219756  -0.020268742366329
          3.8743241412    0.38603381535444
          1.5410752281    0.67538247288481
 p    1 1.00
          0.5828561525                   1
 p    1 1.00
              0.134915                   1
 d    4 1.00
          61.996675034   0.019497333982305
          17.873732552    0.11922868100386
          6.2744782934    0.37625274789341
          2.3552337175    0.64997843079553
 d    1 1.00
         0.85432239901                   1
 d    1 1.00
         0.27869254413                   1
 d    1 1.00
                 0.091                   1
 f    1 1.00
                 1.598                   1

2 0
 s    6 1.00
          27032.382631  0.00057227335211155
          4052.3871392  0.0044353233492995
           922.3272271   0.023020107706038
          261.24070989   0.092822490667928
          85.354641351    0.29378500009671
          31.035035245    0.67401604501641
 s    2 1.00
          12.260860728    0.63839937025506
          4.9987076005    0.39534587125718
 s    1 1.00
          1.1703108158                   1
 s    1 1.00
         0.46474740994                   1
 s    1 1.00
         0.18504536357                   1
 p    4 1.00
          63.274954801   0.012018332222616
          14.627049379   0.083005421790056
          4.4501223456    0.31991743925964
          1.5275799647    0.70715542916104
 p    1 1.00
         0.52935117943                   1
 p    1 1.00
          0.1747842127                   1
 d    1 1.00
                 2.314                   1
 d    1 1.00
                 0.645                   1
 f    1 1.00
                 1.428                   1

3 0
 s    8 1.00
          300784.84637  0.00024103305017787
          45088.970557  0.0018687382457119
          10262.516317  0.0097155134617046
          2905.2897293   0.039479967013317
          946.11487137    0.12842162832271
          339.87832894    0.30457860754832
          131.94425588    0.43465553776779
          52.111494077    0.22742382379948
 s    4 1.00
          329.48839267  -0.024716645792921
          101.92332739   -0.11669599822835
          16.240462745    0.55229779440271
          6.8840675801    0.53539752037712
 s    2 1.00
          10.470693782   -0.37745869768095
          1.7360039648     1.1722622909796
 s    1 1.00
         0.72577288979                   1
 s    1 1.00
         0.11595528203                   1
 s    1 1.00
        0.041968227746                   1
 p    6 1.00
           1585.395997  0.0027395641750272
          375.38006499   0.022167496552173
          120.31816501    0.10364840341367
          44.788749031    0.29703230666936
          17.829278584    0.47773374381763
          7.2247153786    0.27871749884095
 p    3 1.00
          28.143219756  -0.020268742366329
          3.8743241412    0.38603381535444
          1.5410752281    0.67538247288481
 p    1 1.00
          0.5828561525                   1
 p    1 1.00
              0.134915                   1
 d    4 1.00
          61.996675034   0.019497333982305
          17.873732552    0.11922868100386
          6.2744782934    0.37625274789341
          2.3552337175    0.64997843079553
 d    1 1.00
         0.85432239901                   1
 d    1 1.00
         0.27869254413                   1
 d    1 1.00
                 0.091                   1
 f    1 1.00
                 1.598                   1

4 0
 s    7 1.00
          69507.990945  0.00051457389646325
           10426.15688  0.0039781344806745
          2373.2334061   0.020456178670619
          671.56420071   0.080148102887582
           218.4199979    0.23454770317658
          77.572249714    0.44543368582255
          28.888815277    0.35466842499038
 s    3 1.00
          127.10527185    0.11293688054705
          39.339582961     0.4837351421006
          7.6740679989     -1.229229738981
 s    2 1.00
           3.874562763    0.67296821635762
          1.8385832573    0.34956051409054
 s    1 1.00
         0.50229057542                   1
 s    1 1.00
          0.1796272342                   1
 p    5 1.00
          666.50423284  0.0033502508198275
           157.6424169   0.026763970407523
          50.262520978      0.123626823608
          18.536078105    0.35845787918981
          7.2940532777    0.61677296353714
 p    1 1.00
          2.9433248995                   1
 p    1 1.00
          1.0404970818                   1
 p    1 1.00
          0.3845641508                   1
 p    1 1.00
         0.13069642732                   1
 d    2 1.00
                  4.61    0.18265835045336
                 1.011    0.91329175226681
 d    1 1.00
                 0.339                   1
 f    1 1.00
                 0.706                   1

5 0
 s    7 1.00
          69507.990945  0.00051457389646325
           10426.15688  0.0039781344806745
          2373.2334061   0.020456178670619
          671.56420071   0.080148102887582
           218.4199979    0.23454770317658
          77.572249714    0.44543368582255
          28.888815277    0.35466842499038
 s    3 1.00
          127.10527185    0.11293688054705
          39.339582961     0.4837351421006
          7.6740679989     -1.229229738981
 s    2 1.00
           3.874562763    0.67296821635762
          1.8385832573    0.34956051409054
 s    1 1.00
         0.50229057542                   1
 s    1 1.00
          0.1796272342                   1
 p    5 1.00
          666.50423284  0.0033502508198275
           157.6424169   0.026763970407523
          50.262520978      0.123626823608
          18.536078105    0.35845787918981
          7.2940532777    0.61677296353714
 p    1 1.00
          2.9433248995                   1
 p    1 1.00
          1.0404970818                   1
 p    1 1.00
          0.3845641508                   1
 p    1 1.00
         0.13069642732                   1
 d    2 1.00
                  4.61    0.18265835045336
                 1.011    0.91329175226681
 d    1 1.00
                 0.339                   1
 f    1 1.00
                 0.706                   1

6 0
 s    7 1.00
          69507.990945  0.00051457389646325
           10426.15688  0.0039781344806745
          2373.2334061   0.020456178670619
          671.56420071   0.080148102887582
           218.4199979    0.23454770317658
          77.572249714    0.44543368582255
          28.888815277    0.35466842499038
 s    3 1.00
          127.10527185    0.11293688054705
          39.339582961     0.4837351421006
          7.6740679989     -1.229229738981
 s    2 1.00
           3.874562763    0.67296821635762
          1.8385832573    0.34956051409054
 s    1 1.00
         0.50229057542                   1
 s    1 1.00
          0.1796272342                   1
 p    5 1.00
          666.50423284  0.0033502508198275
           157.6424169   0.026763970407523
          50.262520978      0.123626823608
          18.536078105    0.35845787918981
          7.2940532777    0.61677296353714
 p    1 1.00
          2.9433248995                   1
 p    1 1.00
          1.0404970818                   1
 p    1 1.00
          0.3845641508                   1
 p    1 1.00
         0.13069642732                   1
 d    2 1.00
                  4.61    0.18265835045336
                 1.011    0.91329175226681
 d    1 1.00
                 0.339                   1
 f    1 1.00
                 0.706                   1

7 0
 s    7 1.00
          69507.990945  0.00051457389646325
           10426.15688  0.0039781344806745
          2373.2334061   0.020456178670619
          671.56420071   0.080148102887582
           218.4199979    0.23454770317658
          77.572249714    0.44543368582255
          28.888815277    0.35466842499038
 s    3 1.00
          127.10527185    0.11293688054705
          39.339582961     0.4837351421006
          7.6740679989     -1.229229738981
 s    2 1.00
           3.874562763    0.67296821635762
          1.8385832573    0.34956051409054
 s    1 1.00
         0.50229057542                   1
 s    1 1.00
          0.1796272342                   1
 p    5 1.00
          666.50423284  0.0033502508198275
           157.6424169   0.026763970407523
          50.262520978      0.123626823608
          18.536078105    0.35845787918981
          7.2940532777    0.61677296353714
 p    1 1.00
          2.9433248995                   1
 p    1 1.00
          1.0404970818                   1
 p    1 1.00
          0.3845641508                   1
 p    1 1.00
         0.13069642732                   1
 d    2 1.00
                  4.61    0.18265835045336
                 1.011    0.91329175226681
 d    1 1.00
                 0.339                   1
 f    1 1.00
                 0.706                   1

8 0
 s    7 1.00
          69507.990945  0.00051457389646325
           10426.15688  0.0039781344806745
          2373.2334061   0.020456178670619
          671.56420071   0.080148102887582
           218.4199979    0.23454770317658
          77.572249714    0.44543368582255
          28.888815277    0.35466842499038
 s    3 1.00
          127.10527185    0.11293688054705
          39.339582961     0.4837351421006
          7.6740679989     -1.229229738981
 s    2 1.00
           3.874562763    0.67296821635762
          1.8385832573    0.34956051409054
 s    1 1.00
         0.50229057542                   1
 s    1 1.00
          0.1796272342                   1
 p    5 1.00
          666.50423284  0.0033502508198275
           157.6424169   0.026763970407523
          50.262520978      0.123626823608
          18.536078105    0.35845787918981
          7.2940532777    0.61677296353714
 p    1 1.00
          2.9433248995                   1
 p    1 1.00
          1.0404970818                   1
 p    1 1.00
          0.3845641508                   1
 p    1 1.00
         0.13069642732                   1
 d    2 1.00
                  4.61    0.18265835045336
                 1.011    0.91329175226681
 d    1 1.00
                 0.339                   1
 f    1 1.00
                 0.706                   1

9 0
 s    7 1.00
          69507.990945  0.00051457389646325
           10426.15688  0.0039781344806745
          2373.2334061   0.020456178670619
          671.56420071   0.080148102887582
           218.4199979    0.23454770317658
          77.572249714    0.44543368582255
          28.888815277    0.35466842499038
 s    3 1.00
          127.10527185    0.11293688054705
          39.339582961     0.4837351421006
          7.6740679989     -1.229229738981
 s    2 1.00
           3.874562763    0.67296821635762
          1.8385832573    0.34956051409054
 s    1 1.00
         0.50229057542                   1
 s    1 1.00
          0.1796272342                   1
 p    5 1.00
          666.50423284  0.0033502508198275
           157.6424169   0.026763970407523
          50.262520978      0.123626823608
          18.536078105    0.35845787918981
          7.2940532777    0.61677296353714
 p    1 1.00
          2.9433248995                   1
 p    1 1.00
          1.0404970818                   1
 p    1 1.00
          0.3845641508                   1
 p    1 1.00
         0.13069642732                   1
 d    2 1.00
                  4.61    0.18265835045336
                 1.011    0.91329175226681
 d    1 1.00
                 0.339                   1
 f    1 1.00
                 0.706                   1

[5d]
[7f]
[9g]

[MO]
 Sym= A
 Ene=               0
 Spin= Alpha
 Occup=    1.00000
   1    -0.0017545966345564
   2    0.0047623614295219
   3    -0.015405809782182
   4    -0.0079207255400317
   5     0.032532411379977
   6    -0.003439102892856
   7    -0.0025698205075519
   8    -0.0013511928716386
   9    0.0067779748544276
  10    0.0074430988027177
  11    0.0039247518090162
  12    -0.019769001492339
  13    -0.0010452315836104
  14    -1.3651622217325e-05
  15    0.0024637619486434
  16    -0.0015495538692448
  17    -0.0036301112926637
  18     0.020644750325701
  19     -0.16432513289654
  20      0.28545170867191
  21      0.42880751385433
  22     -0.32626851440682
  23      -0.1373323598567
  24     -0.10582299056883
  25      0.18282730834707
  26      0.27560187760903
  27     -0.20883685100105
  28    -0.087900949761072
  29     -0.03667941736079
  30     0.067037135849403
  31     0.099466450090357
  32    -0.079167119662353
  33    -0.032918714733048
  34    0.0042914861373255
  35    -0.0048874400248268
  36    -0.0063278042035957
  37    0.0029048974133053
  38    0.0029532779793004
  39    -0.00088714292012061
  40    0.00083904459447998
  41    0.00099839784368852
  42    -0.00011161048383337
  43    0.00056332184657676
  44    -0.00088939419923186
  45    -0.00018008329367845
  46    -2.8512495474816e-05
  47    -1.9972932194095e-05
  48    -0.0005070602006818
  49    -0.00087673531371413
  50     0.011117463137063
  51    0.00023884928808854
  52    0.0012583049483893
  53     0.027968907124039
  54    0.0014783349849684
  55    0.0011146073650689
  56     0.028046619463668
  57    -0.0024521724319824
  58    0.0017597710784708
  59     0.027342838544584
  60    -0.00029113820941015
  61    -0.00058921940630219
  62    0.00017726529306284
  63    -0.0002085764774622
  64    -7.174015246119e-05
  65    0.0004554335364422
  66    -0.00097281936299206
  67    0.00049456870025418
  68    0.00057306011576013
  69    -0.00019805311464665
  70    -0.00017313290754678
  71    -0.00050478399716603
  72    0.00011914576042722
  73    8.8362198231941e-05
  74    0.0001672740230631
  75    -3.2393118957975e-05
  76    -7.1512956195593e-05
  77    -0.00030189785303398
  78    0.00081736006226418
  79    -0.0026498412262322
  80    -0.0010008504884459
  81    -0.0013667524542233
  82    -0.00067955889184503
  83    0.0014875038653029
  84    -1.3684246333494e-05
  85    0.00076897685303918
  86    -0.0042780379210374
  87    4.5699757834729e-05
  88    -0.0022115430780398
  89    -8.3483863983773e-06
  90    -3.8171368740472e-05
  91    -0.00013550736692907
  92    -0.0020489550000429
  93    0.00017697535947589
  94    0.0054494387408782
  95    -0.00039752521409199
  96    0.00087049504732029
  97    -6.9161330921773e-05
  98    0.00032310703926917
  99    -0.00011756433248997
 100    -0.00070683277732642
 101    0.00055988511708673
 102    -7.2271494462257e-05
 103    0.00069784772792841
 104    -5.415531540236e-05
 105    -0.00024634586723675
 106    0.0027947441437876
 107    -0.00038806775630434
 108    -0.00026288168896907
 109    -0.00014877150339324
 110    -0.00022416475136129
 111    -0.0021773029079372
 112    0.0022741854404173
 113    -0.0026658452218004
 114    0.0014519308610346
 115    -8.925831684652e-05
 116    -0.00029135714546441
 117    -3.0417918064543e-05
 118    0.00015545520988903
 119    -1.6794837990903e-05
 120    0.0001571690036548
 121    1.8206664795456e-05
 122    0.0020222345163237
 123    0.0017144843210749
 124    -0.012040929480413
 125     0.017253609128701
 126     0.010138251522222
 127     0.010398189104241
 128    -0.0069851040249483
 129     0.011620639089427
 130    0.0053901873677023
 131    -0.0036513274403151
 132     0.006086403739024
 133    -0.013772599372334
 134    0.0093506290132048
 135    -0.015667189961839
 136    -0.028513059753214
 137     0.019925067126844
 138    -0.032936601061933
 139    -0.023087040724566
 140      0.01575479659072
 141    -0.027792941260753
 142    -0.00083939252404249
 143    -0.0012922712867788
 144    0.0012064789919659
 145    -0.00011704985503506
 146    0.00078539159308624
 147    0.00019516548224349
 148    -0.0012223996047303
 149    0.00062323633579896
 150    -0.00074650044288307
 151    0.00090181126050894
 152    0.00017513487984568
 153    0.00057424558192833
 154    -0.001173157043339
 155    -0.00032600118860934
 156    -0.0006585131003382
 157    -0.00021443782014585
 158    -8.5140714161952e-05
 159    -0.00055870176771464
 160    -0.00049746481124057
 161    0.0032831379674157
 162    -0.0040571343180764
 163    -0.0049481364624806
 164    -0.010926219950594
 165    -0.016557052719565
 166    0.0073130510308975
 167    -0.0055852511494578
 168    -0.0084864558807103
 169    0.0037327546614421
 170     0.014056550272418
 171     0.021559026008306
 172    -0.0093512993516861
 173     0.030341631315607
 174     0.045573911120277
 175    -0.020318893787347
 176     0.025408549113882
 177      0.03692905933523
 178    -0.017681374960377
 179    0.0008510486722846
 180    -0.001420307756863
 181    -0.0015693933027232
 182     0.001898674436434
 183    0.0010281273191256
 184    -8.5628401537777e-05
 185    -0.00014518484125598
 186    -0.0012227256644191
 187    0.0012415015888122
 188    0.0012870358509784
 189    0.00015435301170752
 190    -0.00030015428894679
 191    -0.00019747157307359
 192    0.00077027095246605
 193    0.00036649474346287
 194    -0.00057323338802634
 195    5.2262605290894e-05
 196    -0.00047265331975524
 197     -0.00045104847394
 198    0.0027329001979719
 199    -0.002472666744686
 200    -0.007098785508113
 201    -0.008475314586267
 202     0.003699708860473
 203     0.017969795168083
 204    -0.004303224963972
 205    0.0020018805212993
 206    0.0091714843893508
 207     0.010805281939342
 208    -0.0053623593516563
 209    -0.023075835758203
 210     0.023541635102804
 211    -0.0094121006017264
 212    -0.049575230634797
 213     0.019249758444226
 214    -0.0062793151674111
 215     -0.04123892794692
 216    0.0010399772342425
 217    -0.0011012323348422
 218    -0.0018532520680089
 219    0.0011961065126804
 220    0.00071671205341392
 221    0.0009149356906956
 222    -0.00067810870392094
 223    -0.00030998671350694
 224    0.0019793476256994
 225    -0.00042898366105917
 226    -0.0001622739045891
 227    -0.0001130883923826
 228    -0.00057929082370575
 229    -8.2844067074191e-05
 230    0.00030895330552796
 231    -0.00014918258350343
 232    -0.00052530284444689
 233    -0.00019405104635343
 234    -0.00018770453894207
 235    0.0011506915135848
 236    -0.0013279392711842
 237    -0.0038120755868078
 238    0.0012193847343159
 239    -0.00037057675847667
 240    -0.00052863568658792
 241    0.00063444797937034
 242    -0.00019479726542316
 243    -0.00025644966248059
 244    -0.0016399506921849
 245    0.00050542607660499
 246    0.00063717789740698
 247    -0.0032749325677541
 248    0.0011070379507506
 249     0.001634868026814
 250    -0.002588684377486
 251    0.0010783977254885
 252    0.0027933825645802
 253    2.6122000013044e-05
 254    -0.00016085113514298
 255    4.4190239352962e-05
 256    5.5917317391851e-05
 257    -9.6840442241906e-05
 258    -0.00038261801031598
 259    -9.4207040938287e-05
 260    3.0007706420475e-05
 261    0.00022899880509196
 262    -0.00028104666919682
 263    2.7762233007008e-05
 264    -5.2326855218785e-05
 265    8.0421135772708e-06
 266    -2.8683701420267e-05
 267    -1.6386813419579e-05
 268    8.1411881922597e-06
 269    -2.897806603324e-05
 270    4.8437133137391e-05
 271    6.6566739770963e-05
 272    -0.00027776378335113
 273    -4.0675596042233e-05
 274    0.0035342330776524
 275    -0.00056847827088658
 276    6.2857506150146e-05
 277    0.00038556428631145
 278    -0.00024765502659292
 279    3.9117829794716e-05
 280    0.00019272610224169
 281    0.00058026028144741
 282    -0.00011743746012454
 283    -0.00046946043359524
 284    0.0019714522546735
 285    -0.00013737994704702
 286    -0.0010079800451536
 287    0.0011988332708549
 288    -0.00094738680463334
 289    -0.0003262093607429
 290    9.2431447538392e-05
 291    4.484777718825e-05
 292    2.3784338381058e-06
 293    -6.7644434219226e-05
 294    4.3765298193976e-05
 295    -0.00021490235409314
 296    -9.592537947408e-05
 297    7.7434469874923e-05
 298    3.0657553603456e-06
 299    5.0810301827264e-05
 300    -2.7728632711616e-05
 301    -4.7162543132244e-05
 302    5.0262971497992e-05
 303    3.2837275764158e-05
 304    3.5779426575968e-05
 305    1.9652757156878e-05
 306    -4.4620782644578e-07
 307    -1.8676805304438e-06
 308    -9.7473569166963e-06
 309    2.5892485436306e-06
 310    0.00021899732342127
 311    -0.0014635282044008
 312    5.9281388753331e-05
 313    2.1393427393695e-05
 314    0.00050064033689214
 315    3.0201911441729e-05
 316    5.6994528321187e-06
 317     0.000241354099367
 318    -7.1405246708753e-05
 319    4.7398515055436e-06
 320    -0.00058968383737362
 321    -0.00021315280589828
 322    -0.00015375585466043
 323    -0.0015272125980868
 324    -0.00016684773055479
 325    -0.00014184056442958
 326    -0.0011105083948547
 327    5.1039000212246e-05
 328    -5.2181689929716e-06
 329    6.7478147007077e-05
 330    8.5152550757671e-06
 331    -2.6611903772913e-05
 332    -0.0001332461131664
 333    0.0003924015424899
 334    -7.075327077342e-05
 335    3.5040685811742e-05
 336    8.6757395111239e-05
 337    -1.304906827477e-05
 338    -1.1145357924546e-06
 339    -2.2139013252328e-05
 340    5.3265233022983e-05
 341    4.1366355579926e-05
 342    -1.2273421915096e-05
 343    2.481414305985e-05
 Sym= A
 Ene=               1
 Spin= Alpha
 Occup=    1.00000
   1    -0.00087369892100178
   2    0.0023709447753084
   3    -0.0076750775107996
   4    -0.0040688160500592
   5     0.019259877971089
   6    -0.0013742991357662
   7    -0.0012855435559846
   8    0.0095900978482936
   9    0.0040020947197528
  10    0.0037312408593206
  11    -0.028010066975486
  12    -0.011712234840702
  13    -0.00066106117549927
  14    0.0044773829569358
  15    0.0023848225200844
  16    -0.0019424472322007
  17     0.026624300900304
  18     0.011205777121805
  19      0.45408245052281
  20     0.059436297688695
  21      0.33244523893463
  22      0.14580606455397
  23      0.27572217381205
  24      0.29084332723055
  25     0.037981078525382
  26      0.21333284415581
  27       0.0937373830954
  28      0.17610878455323
  29      0.10585958063333
  30     0.013506948756385
  31     0.076532883042751
  32     0.032564809966716
  33     0.065076589842862
  34    -0.0053017292751029
  35    0.00065822730516821
  36    -0.0041268995000212
  37    -0.0025454138167931
  38    -0.0032029895890022
  39    0.00077539009582663
  40    0.0012002071404645
  41    0.0006290251025511
  42    0.00065516405957929
  43    0.0012768626968262
  44    3.2044801387577e-05
  45    0.0011615445178668
  46    0.00040834492129894
  47    0.0010341464574902
  48    -0.0019326432388268
  49    -0.0033713046975293
  50    0.0048739605176209
  51    -0.0036422381636646
  52     0.041062125386422
  53     0.026981601954367
  54    -0.0031909535652681
  55     0.040539309570194
  56     0.026694577921577
  57    -0.008501173561784
  58     0.036250058318426
  59     0.026335572303403
  60    -9.3751131785179e-05
  61    -0.00060738331414112
  62    -0.00015748449013246
  63    0.00015212796505749
  64    -0.00092415699963387
  65    0.0010408602978018
  66    -0.001418402211365
  67    0.0016329393779663
  68    0.00088055224955091
  69    -0.0015991188654889
  70    6.4366735094282e-05
  71    -0.00026220413565743
  72    6.876404009607e-05
  73    5.3194934489127e-05
  74    -0.00033603996157493
  75    0.00018620660605064
  76    -0.0001049638454287
  77    -0.00040852277228844
  78    0.0011427827354742
  79    -0.0035259820488366
  80    -0.001810350246021
  81    -0.00036505066084399
  82    -0.00041577072951304
  83     0.001811223441083
  84    0.0016298644169497
  85    0.00046835294818579
  86    -0.0052408079314744
  87    -0.004672034994217
  88    -0.0013002052305015
  89    2.9271136835694e-05
  90    -0.0002962831556673
  91    -0.0004125584284822
  92    -0.0012678802227803
  93    0.0073013009846613
  94    0.0058885866557399
  95    -0.00053457935342618
  96    0.00027857341967692
  97    -0.00019216244114966
  98    0.00042434639618463
  99    0.00087936707483579
 100    -0.00084314036698038
 101    9.7832942772533e-05
 102    -0.00030220269422476
 103    0.00080509985296741
 104    0.0011290034065836
 105    -0.00070519621660901
 106    0.0022090071367816
 107    -0.0010312798988837
 108    -0.00036906312060856
 109    0.0033383735019294
 110     0.002232964448648
 111    0.00060146932269713
 112    0.0014621270703426
 113    -0.00034613579586099
 114    -0.0015316233352985
 115    -5.4058562543905e-05
 116    -0.00028809070111753
 117    -0.00011719947074559
 118    0.0001501666983598
 119    -0.00026417883782732
 120    0.00018398762136168
 121    0.00050721171985912
 122    -0.00017686021710721
 123    -0.00017626117459205
 124    0.0010077550982927
 125    -0.00057276116683789
 126    -0.0037770517105093
 127    -0.0030210336321724
 128     0.019012829649058
 129    0.0093086404143257
 130    -0.0015461684167504
 131    0.0097260148739005
 132    0.0048779749940838
 133    0.0039327457042047
 134    -0.024598636576754
 135     -0.01260618911422
 136    0.0083664120721751
 137    -0.052609624741594
 138    -0.024968822634913
 139     0.006733182347096
 140    -0.045143229506799
 141     -0.02095958805328
 142    -0.0023950736636513
 143    0.00033481173081699
 144    -0.001589666567214
 145    -0.0013652478505489
 146    -0.0003762531923575
 147    -0.0022311752633217
 148    0.00012109401148576
 149    -0.00020518866979583
 150    -0.00063092368929662
 151    -0.00033491861849082
 152    0.0011171391483046
 153    -4.8046239830972e-05
 154    -0.00017963023208492
 155    0.00050997562485144
 156    0.00011542113372131
 157    6.6370164003819e-05
 158    -0.00022444943121617
 159    -0.0012476382356989
 160    -0.0010623605511151
 161    0.0074320290996498
 162    -0.010668605807505
 163    -0.0068847511844114
 164     -0.01394513298522
 165     0.011403759055921
 166    -0.0063961153314115
 167    -0.0071729637268526
 168     0.005884100131456
 169    -0.0032594785716891
 170     0.018180886513956
 171    -0.015002190914673
 172    0.0082461444714879
 173     0.038899583990104
 174     -0.03136544522681
 175     0.017151670478368
 176     0.032012448103975
 177    -0.028620892106261
 178     0.013913028849813
 179    -0.0020573141779095
 180    -0.00030808141284933
 181    0.00057572234574223
 182    0.00022203300877034
 183    -0.0016174495756976
 184    -0.0015641962875496
 185    0.00058056309390246
 186    -0.00055145455332386
 187    0.00065337672428136
 188    -0.00043086405784884
 189    -0.000687218252232
 190    0.00033155830175504
 191    -0.00020489189837377
 192    0.00023735590616041
 193    -0.00045422794477547
 194    4.1459696321184e-05
 195    0.00042663296979912
 196    0.0019511290518021
 197    0.0016538058467212
 198    -0.011602624729175
 199     0.016405810494682
 200     0.010959246885027
 201     0.011722344339375
 202     0.011828906537738
 203    0.0022831222511066
 204    0.0060459444038645
 205    0.0061850097774518
 206    0.0011592541278304
 207    -0.015321374914315
 208    -0.015764781737471
 209    -0.0030138955737255
 210    -0.032687668071009
 211     -0.03345663435166
 212    -0.0056253892185097
 213    -0.025603163349855
 214    -0.029243462775255
 215    -0.0064019027674953
 216    0.0010764517762953
 217    0.00023092395989071
 218    -0.0004330737550318
 219    0.00042294793124064
 220    -0.0013504897651198
 221    0.00046569128130165
 222    0.00015589924311628
 223    -0.00054549701720587
 224    -0.0010096264140653
 225    -0.00072459510189832
 226    0.00031071312171533
 227    -0.00024731778213606
 228    -0.00051786028030318
 229    0.00011838713214178
 230    -0.00037576212827855
 231    -0.00068061023169756
 232    -1.5367303806798e-06
 233    -0.00024070542491532
 234    -0.00023295257210683
 235    0.0014247877747933
 236    -0.001468784203842
 237    -0.0056902986179299
 238      0.00153817036325
 239    -2.527595337492e-06
 240    -0.0012324502054773
 241    0.00074530379009633
 242    2.7279149701316e-05
 243    -0.00058594956271153
 244    -0.0018527388950188
 245    -0.0001080008784323
 246    0.0014380334745906
 247    -0.0045668722168685
 248    0.0003169752255388
 249    0.0039735363600208
 250    -0.0032516198187242
 251    0.0011004889356752
 252    0.0044273061640156
 253    0.0001295714539182