[Molden Format]
made by pyscf v[2.0.1]
[Atoms] (AU)
He   1   2     1.58445976640282    -1.58445976640282     1.58445976640282
He   2   2     1.58445976640282    -1.58445976640282    -1.58445976640282
He   3   2     1.58445976640282     1.58445976640282    -1.58445976640282
He   4   2     1.58445976640282     1.58445976640282     1.58445976640282
He   5   2    -1.58445976640282     1.58445976640282     1.58445976640282
He   6   2    -1.58445976640282     1.58445976640282    -1.58445976640282
He   7   2    -1.58445976640282    -1.58445976640282    -1.58445976640282
He   8   2    -1.58445976640282    -1.58445976640282     1.58445976640282
[GTO]
1 0
 s    3 1.00
                 38.36   0.040176075383249
                  5.77    0.26136807476949
                  1.24    0.79307123949544
 s    1 1.00
                0.2976                   1
 p    1 1.00
                 1.275                   1

2 0
 s    3 1.00
                 38.36   0.040176075383249
                  5.77    0.26136807476949
                  1.24    0.79307123949544
 s    1 1.00
                0.2976                   1
 p    1 1.00
                 1.275                   1

3 0
 s    3 1.00
                 38.36   0.040176075383249
                  5.77    0.26136807476949
                  1.24    0.79307123949544
 s    1 1.00
                0.2976                   1
 p    1 1.00
                 1.275                   1

4 0
 s    3 1.00
                 38.36   0.040176075383249
                  5.77    0.26136807476949
                  1.24    0.79307123949544
 s    1 1.00
                0.2976                   1
 p    1 1.00
                 1.275                   1

5 0
 s    3 1.00
                 38.36   0.040176075383249
                  5.77    0.26136807476949
                  1.24    0.79307123949544
 s    1 1.00
                0.2976                   1
 p    1 1.00
                 1.275                   1

6 0
 s    3 1.00
                 38.36   0.040176075383249
                  5.77    0.26136807476949
                  1.24    0.79307123949544
 s    1 1.00
                0.2976                   1
 p    1 1.00
                 1.275                   1

7 0
 s    3 1.00
                 38.36   0.040176075383249
                  5.77    0.26136807476949
                  1.24    0.79307123949544
 s    1 1.00
                0.2976                   1
 p    1 1.00
                 1.275                   1

8 0
 s    3 1.00
                 38.36   0.040176075383249
                  5.77    0.26136807476949
                  1.24    0.79307123949544
 s    1 1.00
                0.2976                   1
 p    1 1.00
                 1.275                   1

[5d]
[7f]
[9g]

[MO]
 Sym= A
 Ene=               0
 Spin= Alpha
 Occup=    1.00000
   1        1.241835877993
   2     -0.50515871998581
   3    0.0062550160285181
   4    -0.0062550179841245
   5    0.0062550170788595
   6    -0.030864407738362
   7       0.1078902188799
   8    0.00018206207705643
   9    -0.00018205872456532
  10      0.02305044126934
  11    0.0027523519477827
  12    -0.019863745186043
  13    7.1549978438508e-06
  14    0.0018895342004428
  15    -0.0018895462033963
  16    -0.030864412848575
  17      0.10789027249222
  18    0.00018203951230344
  19    -0.023050435254999
  20    0.00018204157800008
  21    0.0027523121457872
  22    -0.019863733850713
  23    -0.001889544337107
  24    0.0018895394207131
  25    7.1462175185385e-06
  26    -0.00059217842937971
  27    0.0038157991526696
  28    0.00026712512976673
  29    -0.00026711987861353
  30    0.00026713624553573
  31    0.0027523605054753
  32    -0.019863751367955
  33    -0.0018895340983052
  34    -7.1439668094598e-06
  35    -0.0018895531284485
  36    -0.030864358920738
  37      0.10789018286317
  38     0.023050450761479
  39    -0.00018205446759086
  40    0.00018204973423534
 Sym= A
 Ene=               1
 Spin= Alpha
 Occup=    1.00000
   1      -0.4788403452437
   2       1.3337824966053
   3    -0.012056623276804
   4     0.012056620495702
   5     -0.01205662196227
   6    0.0075063635862726
   7      -0.1699272116443
   8    -6.2266979142442e-05
   9    6.2270691304804e-05
  10    -0.022625253968173
  11    -0.0041282801053473
  12     0.024152466827194
  13    1.5347407548441e-06
  14    -0.0028235450641301
  15    0.0028235359655613
  16    0.0075063083144123
  17     -0.16992721358343
  18    -6.2286682749502e-05
  19     0.022625259551665
  20    -6.2286187947644e-05
  21    -0.0041282743123332
  22     0.024152502376864
  23    0.0028235360363483
  24    -0.0028235413182569
  25    1.5265706900088e-06
  26    0.00068342869288637
  27    -0.0042976844588218
  28    -0.00030943156128828
  29    0.00030943615091489
  30    -0.00030942173193101
  31    -0.0041282616244395
  32     0.024152458019749
  33    0.0028235447304107
  34    -1.5256139360248e-06
  35    0.0028235300226276
  36      0.00750639056242
  37      -0.1699272620495
  38    -0.022625246336343
  39    6.2272821044104e-05
  40    -6.227841100788e-05
 Sym= A
 Ene=               2
 Spin= Alpha
 Occup=    1.00000
   1    0.0063149814607633
   2    -0.022272714183849
   3       1.0060543251597
   4    -0.0002293104856182
   5    0.00022931061828734
   6    -0.0024410110386032
   7     0.005625216560662
   8    -0.0013875409248045
   9    5.3142358320089e-05
  10    0.0022780961996194
  11    0.00039027597992321
  12    -0.0015431590478472
  13    7.8885143670403e-05
  14    0.00025066639707714
  15    -0.00025066663039622
  16    -0.002441006368785
  17    0.0056252249627308
  18    -0.0013875412832462
  19    -0.0022780962280589
  20    -5.3142394024236e-05
  21    0.0057553752161279
  22     -0.01969892159448
  23    -0.00020857527403203
  24    0.0058620206063779
  25    2.7985649027959e-05
  26    -0.00080910003312477
  27    0.0037443944718152
  28    3.9692183877025e-05
  29    -0.00054466890853323
  30    0.00054466883505739
  31    0.0057553834666897
  32     -0.01969891323672
  33    -0.00020857504703276
  34    -2.7985532108028e-05
  35    -0.005862020498757
  36    -0.055030368964839
  37      0.12084079191841
  38     0.011378953758734
  39    -0.0001324106768637
  40    0.00013241086406945
 Sym= A
 Ene=               3
 Spin= Alpha
 Occup=    1.00000
   1    -0.0063149805539601
   2     0.022272717685223
   3    -0.00022931098521902
   4       1.0060543251126
   5    -0.00022931085386862
   6    0.0024410117749184
   7    -0.0056252179410328
   8    5.3142649129417e-05
   9    -0.0013875411121264
  10    -0.0022780964507711
  11    -0.0057553805675906
  12     0.019698917928213
  13    -2.798586840846e-05
  14    -0.00020857523823012
  15    0.0058620205137417
  16     0.055030350318175
  17     -0.12084080845055
  18    -0.00013241066328218
  19     0.011378953771912
  20    -0.00013241071570265
  21    -0.0057553828403086
  22     0.019698917394505
  23    0.0058620203946623
  24    -0.00020857537644236
  25    -2.7985994930116e-05
  26    0.00080908783380273
  27    -0.0037444024957315
  28    -0.00054466898540245
  29    3.9692091896284e-05
  30    -0.00054466904953059
  31    -0.00039028757017798
  32      0.00154314798659
  33    0.00025066635586519
  34    7.8884994152896e-05
  35    0.00025066691735959
  36    0.0024409877513651
  37    -0.0056252377415241
  38    -0.0022780966678079
  39    -0.0013875412613933
  40    5.3142491967058e-05
 Sym= A
 Ene=               4
 Spin= Alpha
 Occup=    1.00000
   1    0.0063149813795975
   2    -0.022272714003307
   3    0.00022931080421135
   4    -0.00022931063019864
   5       1.0060543251234
   6    -0.055030369272548
   7      0.12084078942782
   8    0.00013241097044224
   9    -0.00013241106088422
  10     0.011378953690992
  11    0.0057553949712735
  12    -0.019698902244795
  13    2.7985293112013e-05
  14    0.0058620201245665
  15    -0.00020857546194975
  16    -0.0024410129660001
  17    0.0056252124706608
  18    -5.3142373567665e-05
  19    -0.0022780963955515
  20    -0.0013875407971954
  21    0.00039029450761733
  22    -0.001543137355167
  23    -0.00025066625592636
  24    0.00025066658529701
  25    7.8884747324399e-05
  26    -0.0008091066536823
  27    0.0037443824649688
  28    0.00054466868087876
  29    -0.00054466871593755
  30    3.9691988724113e-05
  31     0.005755386271783
  32    -0.019698910299827
  33    -0.0058620201625705
  34    -2.7985334192973e-05
  35    -0.0002085757052506
  36    -0.0024410029033062
  37    0.0056252215264141
  38     0.002278096424116
  39    5.314243073539e-05
  40    -0.0013875408489205
 Sym= A
 Ene=               5
 Spin= Alpha
 Occup=    1.00000
   1    -0.030864392801685
   2      0.10789021503846
   3    0.00018203795614538
   4    -0.00018203783795461
   5    -0.023050432542317
   6          1.2418358774
   7     -0.50515872302274
   8    0.0062550217384476
   9    -0.0062550158477249
  10    -0.0062550165585769
  11    -0.030864372481005
  12      0.10789022929737
  13    0.00018202535315825
  14    -0.023050452283823
  15    -0.00018205587308187
  16     0.002752367740797
  17    -0.019863739267452
  18    7.1294761365194e-06
  19      0.00188953960853
  20    0.0018895389641234
  21    -0.00059221767997019
  22    0.0038159383943228
  23    0.00026713923276728
  24    -0.00026712916264123
  25    -0.00026709875456803
  26    0.0027523838474206
  27    -0.019863772323775
  28    -0.001889545654581
  29    0.0018895555077178
  30    -7.101481534374e-06
  31    -0.030864385484005
  32      0.10789027245715
  33     0.023050448228853
  34    -0.000182030370791
  35    -0.00018205759358631
  36    0.0027523358334679
  37    -0.019863788761264
  38    -0.0018895401470724
  39    -7.1225731797715e-06
  40    0.0018895438490184
 Sym= A
 Ene=               6
 Spin= Alpha
 Occup=    1.00000
   1    0.0075063677955745
   2     -0.16992722653364
   3    -6.2288090556616e-05
   4    6.228920456831e-05
   5     0.022625263290347
   6     -0.47884034429073
   7       1.3337824967525
   8    -0.012056619568642
   9     0.012056624244096
  10     0.012056622307949
  11    0.0075063446314574
  12     -0.16992724110003
  13    -6.230086337978e-05
  14     0.022625244961626
  15    6.2272971342039e-05
  16    -0.0041282975139277
  17     0.024152446097094
  18    1.5107260419748e-06
  19    -0.0028235421273454
  20    -0.0028235417821436
  21    0.00068329722528838
  22    -0.0042976451097198
  23    -0.00030941827877449
  24    0.00030942891393797
  25    0.00030945505748022
  26    -0.0041282711583767
  27     0.024152439339319
  28    0.0028235361298011
  29    -0.0028235288264046
  30    -1.4857256888282e-06
  31     0.007506311098713
  32     -0.16992723169613
  33    -0.022625248051478
  34    6.2295809782762e-05
  35    6.2270277764295e-05
  36    -0.004128243212542
  37     0.024152481110672
  38    0.0028235407945008
  39    -1.5039404480021e-06
  40    -0.0028235379007776
 Sym= A
 Ene=               7
 Spin= Alpha
 Occup=    1.00000
   1    -0.0024410308874718
   2    0.0056251986017797
   3    -0.0013875410714612
   4    5.3142294161399e-05
   5    -0.0022780964392999
   6    0.0063149776782778
   7    -0.022272714011324
   8       1.0060543251762
   9    -0.00022931103385445
  10    -0.00022931031660675
  11    -0.002440997555072
  12    0.0056252279346171
  13    -0.0013875412041404
  14    -0.0022780963859903
  15    5.3142339879077e-05
  16    0.00039029603050262
  17    -0.0015431363495063
  18    7.8884457912338e-05
  19    0.00025066638855256
  20    0.00025066652530256
  21    -0.00080909929006056
  22    0.0037443923847701
  23    3.9691492064947e-05
  24    -0.00054466903092095
  25    -0.00054466904785442
  26    0.0057553744631663
  27    -0.019698920721889
  28    -0.00020857542109314
  29    0.0058620206681033
  30    -2.7985476035931e-05
  31    -0.055030371195742
  32      0.12084079052881
  33     0.011378953660945
  34    -0.00013241064403039
  35    -0.00013241088551059
  36    0.0057553784671333
  37    -0.019698914064771
  38    -0.00020857513381183
  39    -2.7985487589847e-05
  40    0.0058620202557895
 Sym= A
 Ene=               8
 Spin= Alpha
 Occup=    0.00000
   1     0.002441028043289
   2    -0.0056252036634047
   3    5.3142470791218e-05
   4    -0.0013875410433158
   5    0.0022780966008866
   6    -0.0063149821440918
   7     0.022272711566791
   8    -0.00022931046036161
   9       1.0060543250848
  10    0.00022931046129287
  11     0.055030351530814
  12     -0.12084080707825
  13    -0.00013241051620426
  14      0.01137895361666
  15    0.00013241083365195
  16    -0.0057553836528814
  17     0.019698914054811
  18    -2.7985870199603e-05
  19    -0.00020857515236733
  20    -0.0058620205410553
  21    0.00080909472886535
  22    -0.0037444006561395
  23    -0.00054466909255291
  24    3.9691871739301e-05
  25    0.00054466923510679
  26    -0.0057553761837754
  27     0.019698922945692
  28    0.0058620206757276
  29    -0.0002085753184812
  30    2.7985868942062e-05
  31    0.0024410203705398
  32    -0.0056252122493833
  33    -0.002278096162808
  34    -0.0013875413448806
  35    -5.314277676548e-05
  36    -0.0003902701017107
  37    0.0015431594662074
  38    0.0002506663126357
  39    7.8884835100077e-05
  40    -0.00025066615355726
 Sym= A
 Ene=               9
 Spin= Alpha
 Occup=    0.00000
   1     0.055030361961172
   2     -0.12084079953533
   3    -0.00013241053052584
   4    0.00013241071966531
   5     0.011378953678956
   6    -0.0063149815443136
   7     0.022272715286283
   8    -0.00022931122863844
   9    0.00022931109423224
  10       1.0060543251658
  11    0.0024410079171218
  12    -0.0056252201562503
  13    5.3142269768116e-05
  14    0.0022780965269728
  15    -0.0013875409797829
  16    -0.0057553774636598
  17     0.019698918854176
  18    -2.7985594767737e-05
  19    -0.0058620205959041
  20    -0.0002085753628176
  21    0.00080910614804403
  22    -0.0037443896660538
  23    -0.00054466904923297
  24    0.00054466923290747
  25    3.9691382118128e-05
  26    -0.00039028482979505
  27    0.0015431495724671
  28    0.00025066665231345
  29    -0.0002506667990477
  30    7.8884166195251e-05
  31    0.0024410071368806
  32    -0.0056252212124212
  33    -0.0022780964996595
  34    -5.3142380787001e-05
  35      -0.0013875410078
  36    -0.0057553713317873
  37     0.019698926214958
  38     0.005862020391081
  39    2.7985795270972e-05
  40    -0.00020857554500826
 Sym= A
 Ene=              10
 Spin= Alpha
 Occup=    0.00000
   1    0.0027523294078932
   2    -0.019863742560155
   3    7.1464841137392e-06
   4    -0.0018895406831379
   5    0.0018895248856149
   6    -0.030864452058761
   7      0.10789025946057
   8    0.00018202160267962
   9     0.023050454822369
  10    -0.00018203389160715
  11       1.2418358790241
  12     -0.50515872642462
  13    0.0062550145730342
  14    0.0062550186897654
  15    -0.0062550166976691
  16    -0.030864397478444
  17      0.10789025266819
  18    0.00018204773031259
  19    0.00018204406641309
  20    -0.023050446887945
  21    0.0027522792153969
  22    -0.019863708655527
  23    -0.0018895349323427
  24    7.1273331000961e-06
  25    0.0018895294269768
  26    -0.030864363277513
  27      0.10789018590675
  28     0.023050439521027
  29    0.00018203900300748
  30    -0.00018205242398041
  31    0.0027523004014259
  32    -0.019863693424182
  33    -0.0018895534821082
  34    -0.0018895350038337
  35    -7.1227348655701e-06
  36    -0.00059220784189037
  37    0.0038158219968214
  38    0.00026712753053424
  39    0.00026710997548788
  40    -0.00026714599806422
 Sym= A
 Ene=              11
 Spin= Alpha
 Occup=    0.00000
   1    -0.0041282838522918
   2     0.024152484108144
   3    1.5276665420128e-06
   4    0.0028235402151763
   5    -0.0028235553198319
   6     0.007506327704369
   7     -0.16992717906481
   8    -6.23034654327e-05
   9    -0.022625242299999
  10    6.2292362456675e-05
  11     -0.47884034414742
  12       1.3337824912766
  13    -0.012056624434235
  14    -0.012056619474865
  15     0.012056623455428
  16    0.0075063199104607
  17     -0.16992723055886
  18    -6.2280213407306e-05
  19    -6.2283236596815e-05
  20     0.022625249205636
  21    -0.0041282963363592
  22     0.024152535729467
  23    0.0028235444105856
  24    1.5113051369291e-06
  25    -0.0028235515421233
  26    0.0075063756413055
  27     -0.16992726596135
  28     -0.02262525567652
  29    -6.228747090273e-05
  30    6.2274265729776e-05
  31    -0.0041283241680611
  32     0.024152507883919
  33    0.0028235276514295
  34     0.002823545862295
  35    -1.5051079871844e-06
  36    0.0006833955482779
  37    -0.0042976705149844
  38    -0.00030943000003499
  39    -0.00030944579437293
  40    0.00030941190508008
 Sym= A
 Ene=              12
 Spin= Alpha
 Occup=    0.00000
   1    0.00039026897765403
   2    -0.001543163441454
   3    7.8884383557198e-05
   4    -0.00025066650173741
   5    0.00025066698975494
   6    -0.0024410019436192
   7    0.0056252279764913
   8    -0.0013875410640361
   9    0.0022780963481053
  10    5.3142763266226e-05
  11    0.0063149823996576
  12    -0.022272713839146
  13       1.0060543251501
  14    0.0002293107273078
  15    -0.00022931081549225
  16    -0.0024410109048514
  17     0.005625218669896
  18    -0.0013875406501709
  19    -5.3142685497622e-05
  20    -0.0022780962627114
  21     0.005755378150973
  22    -0.019698917368146
  23    -0.00020857507972754
  24    2.7985299830536e-05
  25    0.0058620202186878
  26    -0.055030367562977
  27      0.12084079325716
  28      0.01137895369442
  29    0.00013241069548783
  30    -0.00013241077343139
  31    0.0057553798831683
  32    -0.019698916832938
  33    -0.00020857544520414
  34    -0.0058620202975138
  35    -2.7985575206059e-05
  36    -0.00080911951341705
  37    0.0037443757883625
  38    3.969210526464e-05
  39    0.00054466880747248
  40    -0.00054466891294209
 Sym= A
 Ene=              13
 Spin= Alpha
 Occup=    0.00000
   1    0.0057553859596872
   2    -0.019698914878256
   3    2.7985882255443e-05
   4    -0.00020857531774019
   5    0.0058620207057126
   6      -0.0550303534969
   7      0.12084080566264
   8    0.00013241058299015
   9     0.011378953883984
  10    -0.00013241069300713
  11    0.0063149809826452
  12    -0.022272717659487
  13    0.0002293107319962
  14       1.0060543251294
  15    -0.00022931104902959
  16    -0.0024410080398871
  17     0.005625219121326
  18    -5.3142540869229e-05
  19    -0.0013875411101493
  20    -0.0022780965088522
  21    0.00039028910476701
  22    -0.0015431456855064
  23    -0.00025066636715071
  24    7.8884648017884e-05
  25    0.00025066711240231
  26    -0.002440996649518
  27    0.0056252283639655
  28    0.0022780963850647
  29    -0.0013875409577158
  30    5.3142916873991e-05
  31    0.0057553842091996
  32    -0.019698916566129
  33    -0.0058620205715454
  34    -0.00020857535090985
  35    -2.7986069317051e-05
  36    -0.00080908581415778
  37    0.0037444038770888
  38    0.00054466905069114
  39    3.9691776105577e-05
  40    -0.00054466912551929
 Sym= A
 Ene=              14
 Spin= Alpha
 Occup=    0.00000
   1    -0.0057553768302935
   2     0.019698919465786
   3    -2.7985749409176e-05
   4    0.0058620204055668
   5    -0.00020857505227583
   6    0.0024410264324873
   7    -0.0056252045930705
   8    5.3142637102234e-05
   9    -0.0022780964895958
  10    -0.0013875411262211
  11    -0.0063149816286499
  12     0.022272712179063
  13    -0.00022931066872526
  14    -0.00022931048601222
  15       1.0060543251032
  16     0.055030353242135
  17      -0.1208408061623
  18    -0.00013241065718217
  19    -0.00013241067045517
  20     0.011378953640643
  21    -0.0057553745315548
  22     0.019698921532581
  23    0.0058620203040923
  24    -2.7985514129616e-05
  25    -0.00020857532286211
  26    0.0024410118555172
  27    -0.0056252151634043
  28    -0.0022780962507625
  29     5.31427742561e-05
  30    -0.0013875410223804
  31    -0.00039029228914354
  32    0.0015431393941672
  33    0.00025066618909767
  34    0.00025066675456001
  35    7.8884588882988e-05
  36    0.00080908766596704
  37    -0.0037444040369264
  38    -0.00054466926435636
  39    -0.00054466925797419
  40    3.9691592555315e-05
 Sym= A
 Ene=              15
 Spin= Alpha
 Occup=    0.00000
   1    -0.030864434352797
   2      0.10789027558454
   3    0.00018203117807801
   4      0.02305045724689
   5    0.0001820402024369
   6    0.0027522927474232
   7    -0.019863721481368
   8    7.1216142737612e-06
   9    -0.0018895383108179
  10    -0.0018895456242653
  11    -0.030864441283158
  12      0.10789028135221
  13    0.00018203662825956
  14    0.00018203430390006
  15     0.023050453305235
  16       1.2418358828788
  17     -0.50515875466445
  18    0.0062550227680359
  19    0.0062550185862742
  20    0.0062550180028772
  21    -0.030864458343211
  22      0.10789033789692
  23      0.02305046259815
  24    0.00018201877675951
  25    0.00018204532872399
  26    0.0027523542818236
  27    -0.019863800011858
  28    -0.0018895489180512
  29    7.1061535637266e-06
  30    -0.0018895508458797
  31    -0.00059220802688698
  32    0.0038159493488742
  33    0.00026713893710397
  34    0.0002671079656739
  35    0.00026712768925767
  36    0.0027523464234853
  37    -0.019863713385991
  38    -0.0018895317592355
  39    -0.0018895345862225
  40    7.1314623246623e-06
 Sym= A
 Ene=              16
 Spin= Alpha
 Occup=    0.00000
   1    0.0075063023437274
   2     -0.16992718973798
   3    -6.2296003241499e-05
   4    -0.022625240285829
   5    -6.2285309668535e-05
   6    -0.0041283147394455
   7     0.024152509901888
   8    1.5030986140866e-06
   9    0.0028235429557454
  10    0.0028235364297433
  11    0.0075063063569716
  12     -0.16992718226646
  13    -6.2290028462816e-05
  14    -6.2291220816892e-05
  15    -0.022625243387677
  16     -0.47884033975292
  17       1.3337824675484
  18    -0.012056618440576
  19    -0.012056621765895
  20    -0.012056620812036
  21    0.0075062561284668
  22     -0.16992716146247
  23    -0.022625235400509
  24    -6.2306320342536e-05
  25    -6.2281497247677e-05
  26    -0.004128252507459
  27     0.024152455747076
  28    0.0028235334073598
  29    1.4893695487678e-06
  30    0.0028235320700647
  31    0.00068326974198277
  32    -0.0042976618432723
  33    -0.00030941922147991
  34    -0.0003094469536335
  35    -0.0003094277178196
  36     -0.00412834255022
  37     0.024152461121297
  38    0.0028235490943092
  39    0.0028235481292103
  40    1.5132290835109e-06
 Sym= A
 Ene=              17
 Spin= Alpha
 Occup=    0.00000
   1    -0.0024410123474552
   2    0.0056252143704466
   3    -0.0013875409213085
   4    0.0022780964068155
   5    -5.3142572910148e-05
   6    0.00039029016989007
   7    -0.0015431424911514
   8    7.8884670505893e-05
   9    -0.00025066645646645
  10    -0.00025066672097052
  11    -0.0024410177070009
  12     0.005625212071698
  13    -0.0013875413809695
  14    -5.3142464331388e-05
  15    0.0022780962910302
  16    0.0063149784420556
  17    -0.022272713884272
  18       1.0060543252016
  19    0.00022931079987599
  20    0.00022931031490256
  21    -0.055030370240578
  22      0.12084079329239
  23     0.011378953725934
  24    0.00013241072685117
  25    0.00013241046371903
  26    0.0057553585176488
  27    -0.019698934624212
  28    -0.00020857531491503
  29    2.7985649529056e-05
  30    -0.0058620204584868
  31    -0.00080909334682406
  32    0.0037443985673204
  33    3.9691649481187e-05
  34    0.00054466914227752
  35    0.00054466868550592
  36    0.0057553853474922
  37    -0.019698911124098
  38    -0.0002085755770461
  39    -0.0058620206052091
  40    2.7985483726997e-05
 Sym= A
 Ene=              18
 Spin= Alpha
 Occup=    0.00000
   1    -0.055030367284118
   2       0.1208407944196
   3    0.00013241056231719
   4     0.011378953674399
   5    0.00013241077570507
   6      0.00575538176933
   7    -0.019698914094762
   8    2.7985898495213e-05
   9    -0.00020857547817487
  10    -0.0058620204186927
  11    -0.0024410163085479
  12    0.0056252128280245
  13    -5.3142208153538e-05
  14    -0.0013875411125579
  15    0.0022780963328106
  16    0.0063149811189442
  17    -0.022272712409533
  18    0.00022931071721819
  19        1.006054325158
  20    0.00022931070024935
  21    -0.002441019414724
  22    0.0056252117429212
  23    0.0022780963494471
  24    -0.0013875412810424
  25    -5.3142313646008e-05
  26    0.00039028179540679
  27    -0.0015431503267234
  28    -0.00025066652132039
  29    7.8884441477317e-05
  30    -0.00025066634768317
  31    -0.00080910315706179
  32    0.0037443906649638
  33    0.00054466909604398
  34    3.9691399958665e-05
  35    0.00054466898973741
  36    0.0057553728753713
  37    -0.019698922927831
  38    -0.0058620202428226
  39    -0.00020857542579697
  40    2.7985740823946e-05
 Sym= A
 Ene=              19
 Spin= Alpha
 Occup=    0.00000
   1    -0.0024410148014386
   2    0.0056252165973578
   3    -5.3142649451684e-05
   4    0.0022780965234186
   5    -0.0013875414009866
   6    0.0057553815064079
   7    -0.019698916902001
   8    2.7985658172399e-05
   9    -0.0058620203713249
  10    -0.00020857525899577
  11    -0.055030358095115
  12      0.12084080310171
  13    0.00013241045609208
  14    0.00013241071206816
  15     0.011378953839181
  16    0.0063149815019343
  17    -0.022272716491205
  18    0.00022931124340856
  19    0.0002293108620127
  20       1.0060543251536
  21    -0.0024409951611605
  22    0.0056252356097104
  23    0.0022780965743833
  24    -5.3142945670124e-05
  25    -0.001387541484949
  26     0.005755375359508
  27    -0.019698926913885
  28    -0.0058620206362753
  29    2.7985860045667e-05
  30    -0.00020857593289292
  31    -0.00080908486070563
  32    0.0037444102523789
  33    0.00054466891027108
  34    0.00054466927181518
  35    3.9692160850958e-05
  36    0.00039027083594938
  37    -0.0015431638008575
  38    -0.00025066652254801
  39    -0.0002506671121515
  40    7.8884499785311e-05
 Sym= A
 Ene=              20
 Spin= Alpha
 Occup=    0.00000
   1    0.0027523765992098
   2    -0.019863791387751
   3    0.0018895490826114
   4    -0.001889538990227
   5    7.123079470612e-06
   6    -0.00059216998068565
   7    0.0038159283518393
   8    -0.00026711961826519
   9    0.00026712572284978
  10    0.00026711067032435
  11    0.0027524022400999
  12    -0.019863794608354
  13    0.0018895460809217
  14    7.1294474505019e-06
  15    -0.0018895497442687
  16    -0.030864428018401
  17      0.10789033122591
  18     -0.02305043204267
  19    0.00018204640645342
  20    0.00018201526868293
  21       1.2418358797404
  22     -0.50515873856926
  23    -0.0062550179460642
  24    0.0062550202528664
  25    0.0062550179574832
  26     -0.03086444944333
  27       0.1078902391588
  28    -0.00018204176227654
  29    0.00018203905608078
  30     0.023050437938733
  31    0.0027523798034425
  32    -0.019863811476379
  33    -7.1285408409911e-06
  34    -0.0018895483641764
  35    -0.0018895615015757
  36    -0.030864436435335
  37      0.10789027034109
  38    -0.00018206241608696
  39     0.023050426710681
  40    0.00018202183019454
 Sym= A
 Ene=              21
 Spin= Alpha
 Occup=    0.00000
   1    -0.0041282592614943
   2     0.024152440777503
   3    -0.0028235330738345
   4    0.0028235411192667
   5    1.5044509348813e-06
   6    0.00068330658650098
   7      -0.0042976817244
   8    0.00030943655468582
   9    -0.00030942974445239
  10    -0.00030944397909534
  11    -0.0041282604576172
  12      0.02415241115283
  13    -0.0028235360620071
  14    1.5115798189149e-06
  15    0.0028235325656609
  16     0.007506262300011
  17     -0.16992718444472
  18     0.022625261872659
  19    -6.2281367121239e-05
  20    -6.2310261099844e-05
  21     -0.47884034399096
  22       1.3337824784346
  23     0.012056620754666
  24    -0.012056619072255
  25    -0.012056620346412
  26    0.0075063657686469
  27     -0.16992716087625
  28    6.2284943257523e-05
  29    -6.2286660873413e-05
  30    -0.022625256518416
  31    -0.0041282330042098
  32     0.024152425902882
  33    -1.5109969377637e-06
  34    0.0028235326080562
  35    0.0028235222892928
  36    0.0075063259329236
  37     -0.16992717635169
  38    6.2265739326732e-05
  39    -0.022625267417255
  40    -6.2303379233128e-05
 Sym= A
 Ene=              22
 Spin= Alpha
 Occup=    0.00000
   1    -0.005755378046458
   2     0.019698922661586
   3    -0.00020857537540521
   4    0.0058620205117052
   5    -2.7985932514924e-05
   6    0.00080908330714238
   7    -0.0037444088500365
   8    3.9691867046101e-05
   9    -0.00054466914954604
  10    -0.00054466907303947
  11    -0.0057553850114869
  12     0.019698916786064
  13    -0.00020857546602719
  14    -2.7985854120529e-05
  15    0.0058620206131703
  16     0.055030346412414
  17     -0.12084081246634
  18     0.011378953710606
  19    -0.00013241058724883
  20    -0.00013241057689449
  21    -0.0063149809915446
  22     0.022272716659119
  23        1.006054325101
  24    -0.00022931066638675
  25    -0.000229311068772
  26    0.0024409988819339
  27    -0.0056252273793572
  28    -0.001387541029038
  29    5.3142969202224e-05
  30    -0.002278096350995
  31    -0.00039028837287328
  32    0.0015431481041664
  33    7.8884571071882e-05
  34    0.00025066703743532
  35    0.00025066677201757
  36    0.0024410016269481
  37    -0.0056252270154291
  38    -0.0013875413041299
  39    -0.002278096589907
  40    5.3142632497913e-05
 Sym= A
 Ene=              23
 Spin= Alpha
 Occup=    0.00000
   1    0.0057553809561524
   2     -0.01969891749654
   3    0.0058620204539005
   4    -0.0002085750978016
   5    2.7985535686021e-05
   6    -0.00080909068759782
   7    0.0037443990774228
   8    -0.00054466893673544
   9    3.9691415887752e-05
  10    0.00054466879424343