[Molden Format]
made by pyscf v[2.0.1]
[Atoms] (AU)
He   1   2     1.58445976640282    -1.58445976640282     1.58445976640282
He   2   2     1.58445976640282    -1.58445976640282    -1.58445976640282
He   3   2     1.58445976640282     1.58445976640282    -1.58445976640282
He   4   2     1.58445976640282     1.58445976640282     1.58445976640282
He   5   2    -1.58445976640282     1.58445976640282     1.58445976640282
He   6   2    -1.58445976640282     1.58445976640282    -1.58445976640282
He   7   2    -1.58445976640282    -1.58445976640282    -1.58445976640282
He   8   2    -1.58445976640282    -1.58445976640282     1.58445976640282
[GTO]
1 0
 s    3 1.00
            6.36242139    0.15432897044824
              1.158923    0.53532814155484
            0.31364979    0.44463454129142

2 0
 s    3 1.00
            6.36242139    0.15432897044824
              1.158923    0.53532814155484
            0.31364979    0.44463454129142

3 0
 s    3 1.00
            6.36242139    0.15432897044824
              1.158923    0.53532814155484
            0.31364979    0.44463454129142

4 0
 s    3 1.00
            6.36242139    0.15432897044824
              1.158923    0.53532814155484
            0.31364979    0.44463454129142

5 0
 s    3 1.00
            6.36242139    0.15432897044824
              1.158923    0.53532814155484
            0.31364979    0.44463454129142

6 0
 s    3 1.00
            6.36242139    0.15432897044824
              1.158923    0.53532814155484
            0.31364979    0.44463454129142

7 0
 s    3 1.00
            6.36242139    0.15432897044824
              1.158923    0.53532814155484
            0.31364979    0.44463454129142

8 0
 s    3 1.00
            6.36242139    0.15432897044824
              1.158923    0.53532814155484
            0.31364979    0.44463454129142

[5d]
[7f]
[9g]

[MO]
 Sym= A
 Ene=               0
 Spin= Alpha
 Occup=    1.00000
   1       1.0060044440547
   2    -0.036264816185032
   3    -0.0015328513388263
   4    -0.036264816185032
   5    -0.0015328513388263
   6    8.9179464720338e-05
   7    -0.0015328513388263
   8    -0.036264816185032
 Sym= A
 Ene=               1
 Spin= Alpha
 Occup=    1.00000
   1    -0.036264816185032
   2       1.0060044440547
   3    -0.036264816185031
   4    -0.0015328513388262
   5    8.9179464720447e-05
   6    -0.001532851338826
   7    -0.036264816185032
   8    -0.0015328513388265
 Sym= A
 Ene=               2
 Spin= Alpha
 Occup=    1.00000
   1    -0.0015328513388263
   2    -0.036264816185031
   3       1.0060044440547
   4    -0.036264816185032
   5    -0.0015328513388259
   6    -0.036264816185031
   7    -0.001532851338826
   8    8.9179464720447e-05
 Sym= A
 Ene=               3
 Spin= Alpha
 Occup=    1.00000
   1    -0.036264816185032
   2    -0.0015328513388262
   3    -0.036264816185032
   4       1.0060044440547
   5    -0.036264816185031
   6    -0.0015328513388261
   7    8.9179464720634e-05
   8    -0.0015328513388262
 Sym= A
 Ene=               4
 Spin= Alpha
 Occup=    1.00000
   1    -0.0015328513388263
   2    8.9179464720434e-05
   3    -0.0015328513388259
   4    -0.036264816185031
   5       1.0060044440547
   6    -0.036264816185031
   7    -0.001532851338826
   8    -0.036264816185031
 Sym= A
 Ene=               5
 Spin= Alpha
 Occup=    1.00000
   1    8.9179464720275e-05
   2    -0.001532851338826
   3    -0.036264816185031
   4    -0.001532851338826
   5    -0.036264816185031
   6       1.0060044440547
   7    -0.036264816185031
   8    -0.0015328513388261
 Sym= A
 Ene=               6
 Spin= Alpha
 Occup=    1.00000
   1    -0.0015328513388263
   2    -0.036264816185032
   3    -0.001532851338826
   4    8.9179464720566e-05
   5    -0.001532851338826
   6    -0.036264816185031
   7       1.0060044440547
   8    -0.036264816185031
 Sym= A
 Ene=               7
 Spin= Alpha
 Occup=    1.00000
   1    -0.036264816185032
   2    -0.0015328513388265
   3    8.9179464720443e-05
   4    -0.0015328513388263
   5    -0.036264816185031
   6    -0.0015328513388261
   7    -0.036264816185031
   8       1.0060044440547
