[Molden Format]
made by pyscf v[2.0.1]
[Atoms] (AU)
He   1   2     1.58445976640282    -1.58445976640282     1.58445976640282
He   2   2     1.58445976640282    -1.58445976640282    -1.58445976640282
He   3   2     1.58445976640282     1.58445976640282    -1.58445976640282
He   4   2     1.58445976640282     1.58445976640282     1.58445976640282
He   5   2    -1.58445976640282     1.58445976640282     1.58445976640282
He   6   2    -1.58445976640282     1.58445976640282    -1.58445976640282
He   7   2    -1.58445976640282    -1.58445976640282    -1.58445976640282
He   8   2    -1.58445976640282    -1.58445976640282     1.58445976640282
[GTO]
1 0
 s    4 1.00
                   234  0.0072914568776837
                 35.16   0.055053740700346
                 7.989    0.25647777075974
                 2.212    0.76677264923612
 s    1 1.00
                0.6669                   1
 s    1 1.00
                0.2089                   1
 s    1 1.00
               0.05138                   1
 p    1 1.00
                 3.044                   1
 p    1 1.00
                 0.758                   1
 p    1 1.00
                0.1993                   1
 d    1 1.00
                 1.965                   1
 d    1 1.00
                0.4592                   1

2 0
 s    4 1.00
                   234  0.0072914568776837
                 35.16   0.055053740700346
                 7.989    0.25647777075974
                 2.212    0.76677264923612
 s    1 1.00
                0.6669                   1
 s    1 1.00
                0.2089                   1
 s    1 1.00
               0.05138                   1
 p    1 1.00
                 3.044                   1
 p    1 1.00
                 0.758                   1
 p    1 1.00
                0.1993                   1
 d    1 1.00
                 1.965                   1
 d    1 1.00
                0.4592                   1

3 0
 s    4 1.00
                   234  0.0072914568776837
                 35.16   0.055053740700346
                 7.989    0.25647777075974
                 2.212    0.76677264923612
 s    1 1.00
                0.6669                   1
 s    1 1.00
                0.2089                   1
 s    1 1.00
               0.05138                   1
 p    1 1.00
                 3.044                   1
 p    1 1.00
                 0.758                   1
 p    1 1.00
                0.1993                   1
 d    1 1.00
                 1.965                   1
 d    1 1.00
                0.4592                   1

4 0
 s    4 1.00
                   234  0.0072914568776837
                 35.16   0.055053740700346
                 7.989    0.25647777075974
                 2.212    0.76677264923612
 s    1 1.00
                0.6669                   1
 s    1 1.00
                0.2089                   1
 s    1 1.00
               0.05138                   1
 p    1 1.00
                 3.044                   1
 p    1 1.00
                 0.758                   1
 p    1 1.00
                0.1993                   1
 d    1 1.00
                 1.965                   1
 d    1 1.00
                0.4592                   1

5 0
 s    4 1.00
                   234  0.0072914568776837
                 35.16   0.055053740700346
                 7.989    0.25647777075974
                 2.212    0.76677264923612
 s    1 1.00
                0.6669                   1
 s    1 1.00
                0.2089                   1
 s    1 1.00
               0.05138                   1
 p    1 1.00
                 3.044                   1
 p    1 1.00
                 0.758                   1
 p    1 1.00
                0.1993                   1
 d    1 1.00
                 1.965                   1
 d    1 1.00
                0.4592                   1

6 0
 s    4 1.00
                   234  0.0072914568776837
                 35.16   0.055053740700346
                 7.989    0.25647777075974
                 2.212    0.76677264923612
 s    1 1.00
                0.6669                   1
 s    1 1.00
                0.2089                   1
 s    1 1.00
               0.05138                   1
 p    1 1.00
                 3.044                   1
 p    1 1.00
                 0.758                   1
 p    1 1.00
                0.1993                   1
 d    1 1.00
                 1.965                   1
 d    1 1.00
                0.4592                   1

7 0
 s    4 1.00
                   234  0.0072914568776837
                 35.16   0.055053740700346
                 7.989    0.25647777075974
                 2.212    0.76677264923612
 s    1 1.00
                0.6669                   1
 s    1 1.00
                0.2089                   1
 s    1 1.00
               0.05138                   1
 p    1 1.00
                 3.044                   1
 p    1 1.00
                 0.758                   1
 p    1 1.00
                0.1993                   1
 d    1 1.00
                 1.965                   1
 d    1 1.00
                0.4592                   1

8 0
 s    4 1.00
                   234  0.0072914568776837
                 35.16   0.055053740700346
                 7.989    0.25647777075974
                 2.212    0.76677264923612
 s    1 1.00
                0.6669                   1
 s    1 1.00
                0.2089                   1
 s    1 1.00
               0.05138                   1
 p    1 1.00
                 3.044                   1
 p    1 1.00
                 0.758                   1
 p    1 1.00
                0.1993                   1
 d    1 1.00
                 1.965                   1
 d    1 1.00
                0.4592                   1

[5d]
[7f]
[9g]

[MO]
 Sym= A
 Ene=               0
 Spin= Alpha
 Occup=    1.00000
   1       1.3956870487905
   2     -0.86626261671455
   3      0.40450086269927
   4    0.0056528686486016
   5    -0.0072625655396313
   6    0.0072625655396317
   7    -0.007262565539632
   8     0.029763137888172
   9    -0.029763137888173
  10     0.029763137888173
  11     -0.07820098363749
  12     0.078200983637497
  13    -0.078200983637497
  14    6.5198831901731e-16
  15    -0.0032395131392543
  16    0.0032395131392543
  17    3.0343954443076e-16
  18    0.0032395131392546
  19    1.0521954372535e-16
  20     0.011005309455521
  21    -0.011005309455521
  22    -1.4120649094451e-15
  23    -0.011005309455521
  24    -0.0031667657197278
  25     0.011548772121143
  26    -0.075642453018789
  27    -0.014060632539618
  28    0.00032610216212506
  29    -0.00032610216212489
  30    -0.0013147366741463
  31    -0.0028988982601741
  32    0.0028988982601742
  33    -0.0082573793374992
  34     0.015036662241258
  35     -0.01503666224126
  36     -0.02761815372926
  37    -0.010851105784559
  38    0.00016182680771859
  39    -0.00016182680771857
  40    -9.1450464805127e-17
  41    -0.00020915440411219
  42     0.026297954889072
  43    0.0011577307876492
  44    -0.0011577307876498
  45    1.4571677198205e-16
  46    0.00052217197227479
  47    -0.0041865758349894
  48     0.014500451226116
  49    0.0059333023138679
  50    0.0011883814672253
  51    0.00027473432452437
  52     0.001196304984673
  53    -0.0011963049846735
  54    -0.00058804431398904
  55    -0.007278317401718
  56    0.0072783174017176
  57     0.003708886222066
  58    0.0080551000232693
  59    -0.0080551000232641
  60    0.0014754782850597
  61    -0.00036555369589113
  62    -0.0041340756545816
  63    -0.0025556033551895
  64    0.00036555369589137
  65    -0.0021592806683075
  66    0.0011919024646316
  67     0.016054587100707
  68    0.0037399838253135
  69    -0.0011919024646325
  70    -0.0031667657197294
  71     0.011548772121146
  72    -0.075642453018801
  73     -0.01406063253962
  74    0.00032610216212495
  75    0.0013147366741461
  76    0.00032610216212477
  77    -0.002898898260174
  78    0.0082573793375001
  79    -0.0028988982601737
  80     0.015036662241263
  81     0.027618153729259
  82     0.015036662241264
  83    0.0054255528922793
  84    0.00020915440411229
  85    -0.00016182680771859
  86    0.0093973332685811
  87    -0.00016182680771854
  88    -0.013148977444537
  89    -0.00052217197227517
  90    -0.0011577307876493
  91    -0.022774697001516
  92    -0.0011577307876492
  93    -0.004186575834989
  94     0.014500451226114
  95    0.0059333023138756
  96    0.0011883814672234
  97    -0.0011963049846729
  98    0.0011963049846728
  99    0.00027473432452403
 100    0.0072783174017173
 101    -0.0072783174017174
 102    -0.00058804431398871
 103    -0.0080551000232657
 104    0.0080551000232658
 105    0.0037088862220611
 106    -0.0029509565701205
 107    -0.00036555369589117
 108    0.00036555369589111
 109    -1.3057565295062e-17
 110    -0.0041340756545816
 111    0.0043185613366188
 112     0.001191902464632
 113    -0.001191902464632
 114    -7.9797279894933e-17
 115     0.016054587100708
 116    0.0021320936645827
 117    -0.010162179574285
 118     0.021932261019417
 119    0.0030469583983362
 120    -0.00033669894835177
 121    0.00033669894835179
 122    -0.0003366989483517
 123    -0.00022649061355628
 124    0.00022649061355636
 125    -0.00022649061355608
 126    0.0099028840265927
 127    -0.0099028840265909
 128    0.0099028840265875
 129    7.5827315427376e-16
 130    -0.00094344085082505
 131    0.00094344085082488
 132    -1.2488248985943e-17
 133    0.00094344085082527
 134    -1.7230072857791e-15
 135    0.0049640783770555
 136    -0.0049640783770555
 137    7.7889084071359e-16
 138    -0.0049640783770565
 139    -0.0041865758349892
 140     0.014500451226116
 141    0.0059333023138654
 142    0.0011883814672178
 143    -0.001196304984673
 144    -0.00027473432452453
 145    -0.0011963049846734
 146    0.0072783174017178
 147    0.00058804431398903
 148    0.0072783174017178
 149    -0.0080551000232719
 150    -0.0037088862220645
 151    -0.0080551000232686
 152    0.0014754782850598
 153    0.0041340756545816
 154    0.00036555369589104
 155    0.0025556033551897
 156    0.00036555369589133
 157    -0.0021592806683086
 158    -0.016054587100708
 159    -0.0011919024646317
 160    -0.0037399838253146
 161    -0.0011919024646324
 162    -0.0031667657197288
 163     0.011548772121143
 164    -0.075642453018791
 165    -0.014060632539611
 166    -0.001314736674146
 167    -0.00032610216212474
 168    0.00032610216212466
 169      -0.0082573793375
 170    0.0028988982601736
 171    -0.0028988982601732
 172    -0.027618153729252
 173    -0.015036662241262
 174      0.01503666224126
 175    0.0054255528922792
 176    0.00016182680771867
 177    -0.00020915440411241
 178    -0.0093973332685813
 179    -0.00016182680771855
 180    -0.013148977444537
 181    0.0011577307876488
 182    0.00052217197227515
 183     0.022774697001517
 184    -0.0011577307876494
 Sym= A
 Ene=               1
 Spin= Alpha
 Occup=    1.00000
   1     -0.86626261671455
   2       2.8960200739722
   3      -2.8708903999145
   4     -0.24547046608336
   5     0.011812132044174
   6    -0.011812132044176
   7     0.011812132044176
   8     -0.09608315691275
   9     0.096083156912755
  10    -0.096083156912754
  11      0.63139611688781
  12     -0.63139611688784
  13      0.63139611688783
  14    -1.0138703455077e-15
  15     0.018132406031145
  16    -0.018132406031146
  17    -9.1155156679084e-16
  18    -0.018132406031147
  19    -5.1759382185971e-16
  20    -0.065143069220194
  21     0.065143069220197
  22    8.9372953482325e-15
  23     0.065143069220197
  24     0.011548772121141
  25     -0.10670090951741
  26      0.65878521732807
  27      0.14176434231169
  28    -0.0013242099774463
  29    0.0013242099774463
  30    -0.029928375701222
  31     0.012378962784341
  32    -0.012378962784342
  33      0.13188538229551
  34    -0.067779358872714
  35      0.06777935887273
  36      0.33924827805696
  37     0.024410599342377
  38    0.0023334790977357
  39    -0.0023334790977364
  40    3.5031454214797e-16
  41    -4.5876246855678e-05
  42     0.029395221966462
  43    -0.021771371187756
  44     0.021771371187759
  45    -2.4563684419832e-15
  46    0.0022793618037519
  47     0.014500451226118
  48    -0.068078679883885
  49    -0.015517366440233
  50    -0.023605375633046
  51    -0.0015749689147783
  52    -0.0064284934154573
  53    0.0064284934154572
  54    0.0051793280358612
  55     0.035690921492313
  56    -0.035690921492312
  57    -0.025707392855874
  58    -0.050501975569939
  59     0.050501975569916
  60    -0.0075750648463848
  61    0.0026245356554543
  62     0.016640071851322
  63      0.01312039718457
  64    -0.0026245356554554
  65     0.019982516835077
  66    -0.0090719063428469
  67    -0.063152538817691
  68    -0.034610734421466
  69    0.0090719063428506
  70     0.011548772121143
  71     -0.10670090951743
  72      0.65878521732815
  73       0.1417643423117
  74    -0.0013242099774452
  75     0.029928375701224
  76    -0.0013242099774452
  77     0.012378962784341
  78     -0.13188538229551
  79      0.01237896278434
  80    -0.067779358872744
  81     -0.33924827805697
  82    -0.067779358872747
  83    -0.012205299671189
  84    4.5876246855099e-05
  85    -0.0023334790977361
  86    -0.021140199152104
  87    -0.0023334790977358
  88    -0.014697610983229
  89    -0.0022793618037496
  90     0.021771371187758
  91    -0.025457008972833
  92     0.021771371187757
  93     0.014500451226118
  94    -0.068078679883872
  95    -0.015517366440277
  96    -0.023605375633044
  97    0.0064284934154568
  98    -0.006428493415457
  99    -0.0015749689147785
 100    -0.035690921492312
 101     0.035690921492312
 102    0.0051793280358614
 103     0.050501975569921
 104    -0.050501975569919
 105     -0.02570739285585
 106     0.015150129692772
 107    0.0026245356554546
 108    -0.0026245356554547
 109    -1.1015888227631e-16
 110     0.016640071851322
 111    -0.039965033670169
 112    -0.0090719063428478
 113    0.0090719063428475
 114    -1.0755285551056e-16
 115    -0.063152538817693
 116    -0.010162179574286
 117     0.048266598010048
 118     -0.11547735280056
 119    -0.0087271709092799
 120    0.0029017859927158
 121    -0.0029017859927152
 122     0.002901785992715
 123    -0.0041245965018891
 124    0.0041245965018885
 125    -0.004124596501889
 126     -0.04224370888673
 127     0.042243708886718
 128    -0.042243708886704
 129    -1.1595359229251e-15
 130     0.004963674544471
 131    -0.0049636745444709
 132    6.0430682732708e-16
 133    -0.0049636745444718
 134    5.7726977170626e-15
 135    -0.027762044216191
 136     0.027762044216191
 137    -3.8025138593412e-15
 138     0.027762044216195
 139     0.014500451226117
 140    -0.068078679883884
 141    -0.015517366440219
 142    -0.023605375633016
 143    0.0064284934154569
 144    0.0015749689147784
 145    0.0064284934154575
 146    -0.035690921492314
 147    -0.0051793280358617
 148    -0.035690921492313
 149     0.050501975569954
 150     0.025707392855863
 151     0.050501975569933
 152    -0.0075750648463853
 153    -0.016640071851322
 154    -0.0026245356554545
 155    -0.013120397184571
 156    -0.0026245356554552
 157     0.019982516835082
 158     0.063152538817694
 159    0.0090719063428469
 160     0.034610734421473
 161    0.0090719063428505
 162      0.01154877212114
 163     -0.10670090951741
 164       0.6587852173281
 165      0.14176434231166
 166    -0.029928375701224
 167    0.0013242099774454
 168    -0.0013242099774449
 169      0.13188538229551
 170    -0.012378962784339
 171     0.012378962784338
 172      0.33924827805693
 173     0.067779358872743
 174    -0.067779358872728
 175    -0.012205299671189
 176    0.0023334790977354
 177    -4.5876246855129e-05
 178     0.021140199152105
 179    -0.0023334790977361
 180    -0.014697610983228
 181    -0.021771371187756
 182     0.002279361803749
 183     0.025457008972825
 184     0.021771371187759
 Sym= A
 Ene=               2
 Spin= Alpha
 Occup=    1.00000
   1      0.40450086269927
   2      -2.8708903999145
   3       8.8057566335617
   4         1.05752806344
   5     0.050575604550382
   6    -0.050575604550381
   7      0.05057560455038
   8    -0.070093541288505
   9     0.070093541288496
  10    -0.070093541288498
  11      -2.0119991245152
  12       2.0119991245153
  13      -2.0119991245152
  14    3.2102493388627e-15
  15     -0.03552616350593
  16     0.035526163505932
  17    2.7924762237612e-15
  18     0.035526163505935
  19    -4.6323926020714e-15
  20      0.14916291069704
  21     -0.14916291069705
  22    -2.7807617319908e-14
  23     -0.14916291069705
  24    -0.075642453018776
  25      0.65878521732804
  26      -2.7673856259255
  27     -0.85906694779846
  28    0.0001962809135817
  29    -0.00019628091358155
  30     0.058216424118245
  31    -0.019077330293487
  32     0.019077330293489
  33     -0.12789919771422
  34      0.32273709793718
  35     -0.32273709793723
  36      -2.0559110265338
  37      0.10771879646964
  38    -0.024469633657305
  39     0.024469633657307
  40    -1.2170475055047e-15
  41    0.0018360948992394
  42     -0.70259814370524
  43      0.13516801698126
  44     -0.13516801698126
  45    6.8001160258291e-15
  46     -0.01275275449542
  47    0.0059333023138529
  48    -0.015517366440186
  49      0.54873172665234
  50      0.22500931484258
  51    0.0044757633164149
  52     0.017288845648463
  53    -0.017288845648463
  54    -0.019190865146926
  55    -0.066065265995433
  56     0.066065265995429
  57     0.082827722351656
  58     -0.18012339311898
  59      0.18012339311903
  60    0.0043640514687944
  61    -0.0054912566522136
  62     0.019314114370464
  63    -0.0075587588708024
  64     0.005491256652216
  65    -0.014505934375671
  66     0.017197139019995
  67     -0.14134648093052
  68     0.025125015349952
  69    -0.017197139020004
  70    -0.075642453018783
  71       0.6587852173281
  72      -2.7673856259257
  73      -0.8590669477985
  74    0.00019628091357821
  75    -0.058216424118248
  76    0.00019628091357924
  77    -0.019077330293484
  78      0.12789919771423
  79    -0.019077330293484
  80      0.32273709793727
  81       2.0559110265338
  82      0.32273709793727
  83    -0.053859398234822
  84    -0.0018360948992384
  85     0.024469633657306
  86    -0.093287214207795
  87     0.024469633657306
  88      0.35129907185262
  89     0.012752754495414
  90     -0.13516801698126
  91      0.60846784110052
  92     -0.13516801698126
  93    0.0059333023138585
  94    -0.015517366440239
  95       0.5487317266525
  96      0.22500931484258
  97    -0.017288845648463
  98     0.017288845648462
  99    0.0044757633164172
 100     0.066065265995429
 101    -0.066065265995428
 102    -0.019190865146927
 103      0.18012339311904
 104     -0.18012339311905
 105     0.082827722351591
 106    -0.0087281029375944
 107    -0.0054912566522137
 108    0.0054912566522134
 109    5.200907155771e-16
 110     0.019314114370464
 111     0.029011868751373
 112     0.017197139019996
 113    -0.017197139019994
 114    -1.6792123247455e-15
 115     -0.14134648093052
 116     0.021932261019422
 117     -0.11547735280058
 118      0.31497535749605
 119    -0.025524603534577
 120    -0.0053827768008169
 121     0.005382776800815
 122    -0.0053827768008136
 123     0.010100261075074
 124    -0.010100261075071
 125     0.010100261075071
 126     0.070627581468415
 127    -0.070627581468378
 128     0.070627581468348
 129    2.3643165000656e-15
 130    -0.0088988959680755
 131    0.0088988959680753
 132    -1.5666185451839e-15
 133    0.0088988959680776
 134    -1.3633394347329e-14
 135     0.047857436508715
 136    -0.047857436508713
 137    1.124100812433e-14
 138    -0.047857436508727
 139    0.0059333023138567
 140    -0.015517366440196
 141      0.54873172665232
 142      0.22500931484251
 143    -0.017288845648462
 144    -0.0044757633164162
 145    -0.017288845648464
 146     0.066065265995432
 147     0.019190865146926
 148     0.066065265995431
 149      0.18012339311894
 150     -0.08282772235162
 151        0.180123393119
 152    0.0043640514687961
 153    -0.019314114370463
 154    0.0054912566522135
 155    0.0075587588708068
 156    0.0054912566522155
 157    -0.014505934375681
 158      0.14134648093051
 159    -0.017197139019993
 160    -0.025125015349972
 161    -0.017197139020003
 162    -0.075642453018778
 163      0.65878521732807
 164      -2.7673856259256
 165      -0.8590669477984
 166     0.058216424118248
 167    -0.00019628091357865
 168    0.00019628091357792
 169     -0.12789919771423
 170     0.019077330293481
 171    -0.019077330293479
 172      -2.0559110265337
 173     -0.32273709793728
 174      0.32273709793723
 175    -0.053859398234821
 176    -0.024469633657305
 177    0.0018360948992379
 178      0.09328721420779
 179     0.024469633657307
 180      0.35129907185261
 181      0.13516801698126
 182    -0.012752754495411
 183     -0.60846784110049
 184     -0.13516801698127
 Sym= A
 Ene=               3
 Spin= Alpha
 Occup=    1.00000
   1    0.0056528686486016
   2     -0.24547046608336
   3         1.05752806344
   4        4.929188324248
   5    -0.029884624469266
   6     0.029884624469264
   7    -0.029884624469266
   8       0.1370749236852
   9     -0.13707492368519
  10       0.1370749236852
  11     -0.97038436485156
  12       0.9703843648516
  13     -0.97038436485156
  14    2.8585193204711e-15
  15    -0.011548304211986
  16     0.011548304211985
  17    -2.1740230129132e-16
  18     0.011548304211985
  19    -8.6040346188686e-15
  20     0.050567004869144
  21    -0.050567004869146
  22    -9.0595933532889e-15
  23    -0.050567004869148
  24    -0.014060632539606
  25      0.14176434231164
  26     -0.85906694779836
  27      -2.1259099995472
  28    -0.0012838512099358
  29    0.0012838512099375
  30    -0.0037770264135842
  31    -0.0010864016598807
  32    0.0010864016598802
  33      0.02387248346282
  34      0.13283455636138
  35     -0.13283455636142
  36     -0.73843828909948
  37    0.0088382698645459
  38    -0.0095701818554261
  39    0.0095701818554282
  40    -1.7346944619667e-15
  41    -0.0023879313564983
  42     -0.10038710802638
  43     0.057744158849185
  44    -0.057744158849192
  45    1.0109968417993e-14
  46     0.010009243789125
  47    0.0011883814672223
  48    -0.023605375633046
  49      0.22500931484259
  50      0.89430458169336
  51    0.0020512060388867
  52    0.0048644778879825
  53    -0.0048644778879809
  54    -0.0060502656124929
  55    -0.017746571802825
  56     0.017746571802823
  57     -0.02122290724339
  58    -0.071630024294602
  59     0.071630024294639
  60    0.0015981700340951
  61    0.00096231711670259
  62    0.0064042730575799
  63    -0.0027681116981902
  64    -0.00096231711670037
  65    -0.0029236895748575
  66    -0.0068721426194713
  67    -0.043508565852875
  68    0.0050639788892324
  69    0.0068721426194637
  70    -0.014060632539618
  71       0.1417643423117
  72     -0.85906694779854
  73      -2.1259099995473
  74    -0.001283851209938
  75    0.0037770264135827
  76    -0.0012838512099386
  77    -0.001086401659881
  78     -0.02387248346282
  79    -0.0010864016598792
  80      0.13283455636145
  81      0.73843828909953
  82      0.13283455636146
  83    -0.0044191349322731
  84    0.0023879313565001
  85    0.0095701818554279
  86    -0.0076541662281986
  87    0.0095701818554278
  88     0.050193554013187
  89    -0.010009243789131
  90    -0.057744158849193
  91     0.086937785763292
  92    -0.057744158849193
  93    0.0011883814672227
  94    -0.023605375633059
  95      0.22500931484265
  96      0.89430458169336
  97    -0.0048644778879828
  98    0.0048644778879824
  99    0.0020512060388878
 100     0.017746571802827
 101    -0.017746571802825
 102    -0.0060502656124931
 103     0.071630024294634
 104    -0.071630024294634
 105    -0.021222907243405
 106    -0.0031963400681933
 107    0.00096231711670223
 108    -0.00096231711670194
 109    1.5346629845699e-16
 110      0.00640427305758
 111     0.005847379149731
 112    -0.0068721426194708
 113    0.0068721426194692
 114    -4.0852737859254e-16
 115    -0.043508565852874
 116    0.0030469583983397
 117    -0.0087271709092829
 118    -0.025524603534587
 119     -0.41029064107678
 120    0.0010506314628896
 121    -0.0010506314628884
 122    0.0010506314628899
 123    -0.0043057145416864
 124    0.0043057145416844
 125    -0.0043057145416862
 126    -0.014835191512112
 127     0.014835191512101
 128    -0.014835191512127
 129    9.703824831752e-16
 130    -0.00018057459350305
 131    0.00018057459350311
 132    7.5003321513782e-16
 133    0.00018057459350414
 134    -5.5727094340015e-15
 135    0.0007995186343718
 136    -0.00079951863437425
 137    -3.7747582837255e-15
 138    -0.0007995186343784
 139    0.0011883814672155
 140    -0.023605375633007
 141      0.22500931484248
 142      0.89430458169332
 143    -0.0048644778879806
 144    -0.0020512060388879
 145    -0.0048644778879832
 146     0.017746571802824
 147    0.0060502656124946
 148     0.017746571802828
 149     0.071630024294564
 150     0.021222907243374
 151     0.071630024294588
 152    0.0015981700340966
 153    -0.006404273057578
 154    -0.00096231711670204
 155    0.0027681116981913
 156    -0.00096231711670108
 157    -0.002923689574864
 158     0.043508565852868
 159    0.0068721426194679
 160    -0.0050639788892379
 161    0.0068721426194648
 162    -0.014060632539616
 163      0.14176434231168
 164     -0.85906694779844
 165      -2.1259099995472
 166    -0.0037770264135839
 167    0.0012838512099382
 168    -0.0012838512099372
 169     0.023872483462819
 170    0.0010864016598788
 171    -0.0010864016598822
 172     -0.73843828909949
 173     -0.13283455636145
 174      0.13283455636141
 175    -0.0044191349322735
 176    -0.0095701818554267
 177    -0.0023879313564997
 178    0.0076541662281966
 179    0.0095701818554281
 180     0.050193554013192
 181     0.057744158849188
 182     0.010009243789128
 183     -0.08693778576328
 184    -0.057744158849194
 Sym= A
 Ene=               4
 Spin= Alpha
 Occup=    1.00000
   1    -0.0072625655396313
   2     0.011812132044174
   3     0.050575604550382
   4    -0.029884624469266
   5       1.1980004569522
   6    -0.00066912350650368
   7    0.00066912350650402
   8     -0.47889353940556
   9    0.0028841160418149
  10    -0.0028841160418148
  11     0.088965288760147
  12    -0.014211738573078
  13     0.014211738573082
  14    0.00021206357057336
  15    0.00094578142741641
  16    -0.00027334349944967
  17    -0.00036730487866792
  18    -0.00094578142741658
  19    -0.014962164269644
  20    -0.00049394802999233
  21    0.00083240214621228
  22     0.025915228706213
  23    0.00049394802999098
  24    0.00032610216212509
  25    -0.001324209977445
  26    0.00019628091358012
  27    -0.0012838512099371
  28    -0.0015852445965362
  29    -0.00033988980738061
  30    -0.00081918417001507
  31    0.0029280115360742
  32    0.0011211498431647
  33    0.0027802583025426
  34    0.0019411282092073
  35    -0.001934910469053
  36    0.0048557931131254
  37    -0.0010086261718203
  38    -0.003321031212678
  39    -8.9311738458102e-05
  40    0.00047263421978419
  41    -0.00035540466965015
  42    0.0079907710744091
  43    0.0085131587294078
  44    0.00081572333304567
  45    -0.0039105084736395
  46    0.0014543914182451
  47    0.00027473432452459
  48    -0.0015749689147781
  49     0.004475763316414
  50    0.0020512060388878
  51    8.159299100557e-05
  52    1.8437229444648e-05
  53    -1.8437229444294e-05
  54    0.00015711513451371
  55    6.0976352271611e-05
  56    -6.0976352272164e-05
  57    -0.0006456833207547
  58    -0.001374669729155
  59    0.0013746697291549
  60    -4.2447074509852e-05
  61    0.00080610796487504
  62    0.00023049717601217
  63    7.3520489683931e-05
  64    -0.00080610796487634
  65    0.00038088848400421
  66    -0.0030216593114626
  67    -0.00060204658376648
  68    -0.00065971820631319
  69    0.0030216593114625
  70    0.00032610216212574
  71    -0.0013242099774445
  72    0.00019628091357408
  73    -0.0012838512099372
  74    -0.0015852445965362
  75    0.00081918417001415
  76    0.00033988980738005
  77    0.0029280115360744
  78    -0.0027802583025427
  79    -0.0011211498431634
  80      0.00194112820921
  81    -0.004855793113121
  82    0.0019349104690516
  83    9.4999844879202e-05
  84    0.00035540466965057
  85    -8.9311738458946e-05
  86    0.0011098129976098
  87    0.0033210312126782
  88    -0.00060878585731739
  89    -0.0014543914182446
  90    0.00081572333304693
  91    -0.0088754649830828
  92    -0.0085131587294071
  93    0.0011963049846733
  94    -0.0064284934154563
  95     0.017288845648463
  96    0.0048644778879827
  97    -0.0021448181361835
  98    -0.00019840552962286
  99    1.8437229445158e-05
 100    0.0047566664471724
 101    0.0020984034057755
 102    -0.00016177947853124
 103     0.021187828540134
 104    -0.0073340339503162
 105    0.0019152164173561
 106    0.00088374127440883
 107    -7.3946288754076e-05
 108    1.666820325572e-05
 109    3.031143297478e-05
 110    0.0028211504869966
 111    -0.0031415530532159
 112    7.1890385210596e-06
 113    -0.00011290415253625
 114    0.0066994705271844
 115    -0.016599055103023
 116    0.00033669894835144
 117    -0.0029017859927155
 118    0.0053827768008159
 119    -0.0010506314628912
 120    0.00039608777362622
 121    -7.0171496042101e-05
 122    7.0171496043385e-05
 123    -0.0015468156494977
 124    0.00034255214721644
 125    -0.00034255214721825
 126    0.00029139136429475
 127    -0.002060868663948
 128    0.0020608686639471
 129    6.7351207212902e-05
 130    -0.00027870767839014
 131    0.00011112008492606
 132    -0.00011665571284483
 133    0.00027870767839072
 134    0.00012610196249935
 135    -5.2438131406479e-05