[Molden Format]
made by pyscf v[2.2.1]
[Atoms] (AU)
Fe   1   26     3.17068844873907     0.00098706064664     0.12237737881307
O   2   8     0.00000000000000     0.00000000000000    -0.89004350580623
Fe   3   26    -3.17068844873907    -0.00098706064664     0.12237737881307
Cl   4   17     3.53383895113107    -2.07485195383062     3.76228752659000
Cl   5   17     5.54152580550813    -1.85590924879884    -2.78672786652360
Cl   6   17     4.48169216485503     3.92976278472880    -0.95330240907949
Cl   7   17    -3.53383895113107     2.07485195383062     3.76228752659000
Cl   8   17    -5.54152580550813     1.85590924879884    -2.78672786652360
Cl   9   17    -4.48169216485503    -3.92976278472880    -0.95330240907949
[GTO]
1 0
 s   19 1.00
               4316265  8.0488023199039e-06
              646342.4  6.2583054711947e-05
              147089.7  0.00032902387219861
              41661.52  0.0013873548827733
              13590.77  0.0050232555755522
               4905.75   0.016101398639487
              1912.746   0.045900336121579
              792.6043    0.11361539039989
              344.8065    0.22838688070209
              155.8999    0.32211587278232
              72.23091    0.23836607985889
              32.72506   0.074046663743311
              15.66762   0.092141962214321
              7.503483   0.093397892108199
              3.312223   0.015739648670054
              1.558471  -0.00041866816462398
              0.683914  5.3763175457196e-05
              0.146757  -3.8166536775059e-05
              0.070583  4.3196026350084e-05
 s   19 1.00
               4316265  -4.1559369962002e-06
              646342.4  -3.2313877789452e-05
              147089.7  -0.00016995180465104
              41661.52  -0.00071713396588372
              13590.77  -0.0026036143474475
               4905.75  -0.0083990746356235
              1912.746  -0.024340990410105
              792.6043   -0.06251922420585
              344.8065   -0.13659234113955
              155.8999   -0.23126975377185
              72.23091   -0.23837242471164
              32.72506   0.031238242190359
              15.66762    0.50867971876342
              7.503483    0.49876745931891
              3.312223   0.090335150398436
              1.558471  -0.0060053124295769
              0.683914  0.00023124445387536
              0.146757  -0.00056436569092716
              0.070583  0.00049922395745117
 s   19 1.00
               4316265  9.5392794968425e-07
              646342.4  7.4201288995743e-06
              147089.7  3.9012973126954e-05
              41661.52  0.00016483791324274
              13590.77  0.00059904395703174
               4905.75  0.0019438370854879
              1912.746   0.005691474006023
              792.6043   0.015024474939216
              344.8065   0.034550270877518
              155.8999   0.065006594024135
              72.23091    0.07721942584146
              32.72506  -0.018748066959575
              15.66762   -0.30114268504749
              7.503483   -0.45580542340238
              3.312223    0.12874214182054
              1.558471    0.71886675886813
              0.683914    0.40547615588353
              0.146757    0.02169842334627
              0.070583  -0.0083497819778808
 s   19 1.00
               4316265  -2.7855316684837e-07
              646342.4  -2.1659942913938e-06
              147089.7  -1.1393815969693e-05
              41661.52  -4.8110671166032e-05
              13590.77  -0.00017498931033188
               4905.75  -0.00056730298734717
              1912.746  -0.0016634190856823
              792.6043  -0.0043867862458281
              344.8065  -0.010118228343349
              155.8999  -0.019039595468327
              72.23091  -0.022840460969647
              32.72506  0.0056966075590623
              15.66762   0.092272032737637
              7.503483    0.14828220074088
              3.312223  -0.054130717799492
              1.558471   -0.29363940203754
              0.683914   -0.33284949014195
              0.146757    0.36880606827045
              0.070583    0.77615453677882
 s   19 1.00
               4316265  -4.0457736469034e-07
              646342.4  -3.2182147037811e-06
              147089.7  -1.6378172028258e-05
              41661.52  -7.2229167603371e-05
              13590.77  -0.00024863317185672
               4905.75  -0.00086224981539081
              1912.746  -0.0023285468621802
              792.6043  -0.0067893875672321
              344.8065    -0.0137857032153
              155.8999  -0.030900463570667
              72.23091  -0.026550287703751
              32.72506  -0.0098488093433088
              15.66762    0.18182680231062
              7.503483    0.15435236850623
              3.312223   0.055554043395676
              1.558471   -0.96380941837406
              0.683914    0.26103022908272
              0.146757     1.8507028943296
              0.070583   -0.94179895310717
 s    1 1.00
              0.031449                   1
 s    1 1.00
               0.01401                   1
 p   15 1.00
              17745.69  4.0999986375771e-05
              4200.721  0.00036899987738194
              1364.429   0.002128999292537
              522.0806  0.0093689968866974
              221.4595   0.033096989001924
              100.9096   0.094430968620741
              48.40115    0.20807693085637
              23.98536    0.33233288956632
               12.1825    0.33298688934899
              6.242298    0.15684294788134
              3.110944   0.021548992839304
              1.509958  -0.0020949993038351
              0.710845  -0.0017389994221333
               0.27319  -0.00029999990031052
              0.104233  2.899999036335e-05
 p   15 1.00
              17745.69  -1.5001690667838e-05
              4200.721  -0.0001300146524546
              1364.429  -0.00075108464610309
              522.0806  -0.0033293752155489
              221.4595  -0.011913342615686
              100.9096  -0.034936937339972
              48.40115  -0.079998015655313
              23.98536   -0.13465117498367
               12.1825    -0.1386136215454
              6.242298   0.030281412669387
              3.110944    0.33325355717162
              1.509958    0.45620441354709
              0.710845    0.28508312843719
               0.27319   0.046149200945115
              0.104233  -0.0032493661986537
 p   15 1.00
              17745.69  4.2059051436175e-06
              4200.721  4.0657083054969e-05
              1364.429  0.00023132478289896
              522.0806  0.0010290447918051
              221.4595  0.0036815689690465
              100.9096   0.010830205744815
              48.40115   0.024861105303923
              23.98536   0.042136159697141
               12.1825   0.043592804845214
              6.242298  -0.014086978294356
              3.110944   -0.12380221987076
              1.509958   -0.18200914312166
              0.710845   -0.10786324134483
               0.27319    0.29814399791561
              0.104233    0.80341340250219
 p   15 1.00
              17745.69  5.2179925883807e-06
              4200.721  4.3831137742398e-05
              1364.429  0.00025150724275995
              522.0806  0.0011323043916786
              221.4595  0.0039980259212173
              100.9096   0.011921025867415
              48.40115   0.026916492967903
              23.98536   0.046771998365209
               12.1825   0.046542406691321
              6.242298  -0.011664300632066
              3.110944   -0.14415643764068
              1.509958   -0.19649394690065
              0.710845    -0.1120814371999
               0.27319    0.46425836736896
              0.104233    0.66815247135846
 p    1 1.00
              0.038291                   1
 p    1 1.00
               0.01407                   1
 d    7 1.00
               113.344  0.0035858865538461
               33.6414   0.026192209321351
                12.331    0.10068824060359
               4.99478     0.2428579762288
                2.0728    0.36285413346948
              0.830753    0.36792211874346
              0.309178    0.24020462334533
 d    7 1.00
               113.344  -0.0050113538596978
               33.6414   -0.03664085513561
                12.331   -0.14483843267146
               4.99478   -0.35331590629798
                2.0728   -0.40650711182833
              0.830753   0.073571570070304
              0.309178    0.72607174312111
 d    1 1.00
               0.10013                   1
 d    1 1.00
               0.03243                   1
 f    2 1.00
                3.2243    0.42224911271107
                0.7758    0.77146820592821
 f    1 1.00
                0.2749                   1

2 0
 s    8 1.00
                 11720  0.00070964594651845
                  1759  0.0054672722921914
                 400.8   0.027823118610189
                 113.7    0.10474773971146
                 37.03    0.28292084635691
                 13.27    0.44849523869833
                 5.025    0.27081688521277
                 1.013    0.01545029160744
 s    8 1.00
                 11720  -0.00031444341168873
                  1759  -0.0024821376810179
                 400.8  -0.012316355381583
                 113.7  -0.050538917343672
                 37.03   -0.13938490331632
                 13.27   -0.32507749481778
                 5.025   -0.22984830758785
                 1.013     1.0953793467883
 s    1 1.00
                0.3023                   1
 s    1 1.00
               0.07896                   1
 p    3 1.00
                  17.7   0.062679166281506
                 3.854    0.33353656587936
                 1.046    0.74123964163973
 p    1 1.00
                0.2753                   1
 p    1 1.00
               0.06856                   1
 d    1 1.00
                 1.185                   1
 d    1 1.00
                 0.332                   1

3 0
 s   19 1.00
               4316265  8.0488023199039e-06
              646342.4  6.2583054711947e-05
              147089.7  0.00032902387219861
              41661.52  0.0013873548827733
              13590.77  0.0050232555755522
               4905.75   0.016101398639487
              1912.746   0.045900336121579
              792.6043    0.11361539039989
              344.8065    0.22838688070209
              155.8999    0.32211587278232
              72.23091    0.23836607985889
              32.72506   0.074046663743311
              15.66762   0.092141962214321
              7.503483   0.093397892108199
              3.312223   0.015739648670054
              1.558471  -0.00041866816462398
              0.683914  5.3763175457196e-05
              0.146757  -3.8166536775059e-05
              0.070583  4.3196026350084e-05
 s   19 1.00
               4316265  -4.1559369962002e-06
              646342.4  -3.2313877789452e-05
              147089.7  -0.00016995180465104
              41661.52  -0.00071713396588372
              13590.77  -0.0026036143474475
               4905.75  -0.0083990746356235
              1912.746  -0.024340990410105
              792.6043   -0.06251922420585
              344.8065   -0.13659234113955
              155.8999   -0.23126975377185
              72.23091   -0.23837242471164
              32.72506   0.031238242190359
              15.66762    0.50867971876342
              7.503483    0.49876745931891
              3.312223   0.090335150398436
              1.558471  -0.0060053124295769
              0.683914  0.00023124445387536
              0.146757  -0.00056436569092716
              0.070583  0.00049922395745117
 s   19 1.00
               4316265  9.5392794968425e-07
              646342.4  7.4201288995743e-06
              147089.7  3.9012973126954e-05
              41661.52  0.00016483791324274
              13590.77  0.00059904395703174
               4905.75  0.0019438370854879
              1912.746   0.005691474006023
              792.6043   0.015024474939216
              344.8065   0.034550270877518
              155.8999   0.065006594024135
              72.23091    0.07721942584146
              32.72506  -0.018748066959575
              15.66762   -0.30114268504749
              7.503483   -0.45580542340238
              3.312223    0.12874214182054
              1.558471    0.71886675886813
              0.683914    0.40547615588353
              0.146757    0.02169842334627
              0.070583  -0.0083497819778808
 s   19 1.00
               4316265  -2.7855316684837e-07
              646342.4  -2.1659942913938e-06
              147089.7  -1.1393815969693e-05
              41661.52  -4.8110671166032e-05
              13590.77  -0.00017498931033188
               4905.75  -0.00056730298734717
              1912.746  -0.0016634190856823
              792.6043  -0.0043867862458281
              344.8065  -0.010118228343349
              155.8999  -0.019039595468327
              72.23091  -0.022840460969647
              32.72506  0.0056966075590623
              15.66762   0.092272032737637
              7.503483    0.14828220074088
              3.312223  -0.054130717799492
              1.558471   -0.29363940203754
              0.683914   -0.33284949014195
              0.146757    0.36880606827045
              0.070583    0.77615453677882
 s   19 1.00
               4316265  -4.0457736469034e-07
              646342.4  -3.2182147037811e-06
              147089.7  -1.6378172028258e-05
              41661.52  -7.2229167603371e-05
              13590.77  -0.00024863317185672
               4905.75  -0.00086224981539081
              1912.746  -0.0023285468621802
              792.6043  -0.0067893875672321
              344.8065    -0.0137857032153
              155.8999  -0.030900463570667
              72.23091  -0.026550287703751
              32.72506  -0.0098488093433088
              15.66762    0.18182680231062
              7.503483    0.15435236850623
              3.312223   0.055554043395676
              1.558471   -0.96380941837406
              0.683914    0.26103022908272
              0.146757     1.8507028943296
              0.070583   -0.94179895310717
 s    1 1.00
              0.031449                   1
 s    1 1.00
               0.01401                   1
 p   15 1.00
              17745.69  4.0999986375771e-05
              4200.721  0.00036899987738194
              1364.429   0.002128999292537
              522.0806  0.0093689968866974
              221.4595   0.033096989001924
              100.9096   0.094430968620741
              48.40115    0.20807693085637
              23.98536    0.33233288956632
               12.1825    0.33298688934899
              6.242298    0.15684294788134
              3.110944   0.021548992839304
              1.509958  -0.0020949993038351
              0.710845  -0.0017389994221333
               0.27319  -0.00029999990031052
              0.104233  2.899999036335e-05
 p   15 1.00
              17745.69  -1.5001690667838e-05
              4200.721  -0.0001300146524546
              1364.429  -0.00075108464610309
              522.0806  -0.0033293752155489
              221.4595  -0.011913342615686
              100.9096  -0.034936937339972
              48.40115  -0.079998015655313
              23.98536   -0.13465117498367
               12.1825    -0.1386136215454
              6.242298   0.030281412669387
              3.110944    0.33325355717162
              1.509958    0.45620441354709
              0.710845    0.28508312843719
               0.27319   0.046149200945115
              0.104233  -0.0032493661986537
 p   15 1.00
              17745.69  4.2059051436175e-06
              4200.721  4.0657083054969e-05
              1364.429  0.00023132478289896
              522.0806  0.0010290447918051
              221.4595  0.0036815689690465
              100.9096   0.010830205744815
              48.40115   0.024861105303923
              23.98536   0.042136159697141
               12.1825   0.043592804845214
              6.242298  -0.014086978294356
              3.110944   -0.12380221987076
              1.509958   -0.18200914312166
              0.710845   -0.10786324134483
               0.27319    0.29814399791561
              0.104233    0.80341340250219
 p   15 1.00
              17745.69  5.2179925883807e-06
              4200.721  4.3831137742398e-05
              1364.429  0.00025150724275995
              522.0806  0.0011323043916786
              221.4595  0.0039980259212173
              100.9096   0.011921025867415
              48.40115   0.026916492967903
              23.98536   0.046771998365209
               12.1825   0.046542406691321
              6.242298  -0.011664300632066
              3.110944   -0.14415643764068
              1.509958   -0.19649394690065
              0.710845    -0.1120814371999
               0.27319    0.46425836736896
              0.104233    0.66815247135846
 p    1 1.00
              0.038291                   1
 p    1 1.00
               0.01407                   1
 d    7 1.00
               113.344  0.0035858865538461
               33.6414   0.026192209321351
                12.331    0.10068824060359
               4.99478     0.2428579762288
                2.0728    0.36285413346948
              0.830753    0.36792211874346
              0.309178    0.24020462334533
 d    7 1.00
               113.344  -0.0050113538596978
               33.6414   -0.03664085513561
                12.331   -0.14483843267146
               4.99478   -0.35331590629798
                2.0728   -0.40650711182833
              0.830753   0.073571570070304
              0.309178    0.72607174312111
 d    1 1.00
               0.10013                   1
 d    1 1.00
               0.03243                   1
 f    2 1.00
                3.2243    0.42224911271107
                0.7758    0.77146820592821
 f    1 1.00
                0.2749                   1

4 0
 s   11 1.00
                127900  0.00024114871589341
                 19170  0.0018709167623906
                  4363  0.0097080975316356
                  1236   0.039314601559857
                 403.6    0.12592976280573
                 145.7    0.29933568217791
                 56.81    0.42187850515402
                 23.23    0.23719678610108
                 6.644   0.019152759743309
                 2.575  -0.0033478605238743
                0.5371  0.00092986648053772
 s   11 1.00
                127900  -6.7686212144989e-05
                 19170  -0.00052025272713055
                  4363  -0.002756740476645
                  1236  -0.011119859194452
                 403.6  -0.038474810515467
                 145.7  -0.099182958837714
                 56.81   -0.20078096800963
                 23.23   -0.12991762475292
                 6.644     0.5078973280256
                 2.575    0.60887203408121
                0.5371   0.042027000220214
 s   11 1.00
                127900  3.7727423963596e-05
                 19170  0.00029134554352928
                  4363  0.0015343024394636
                  1236  0.0062554500584171
                 403.6   0.021485486904775
                 145.7   0.056985552488738
                 56.81    0.11586478291237
                 23.23   0.084709741012619
                 6.644   -0.40364106838048
                 2.575   -0.75234173435605
                0.5371     1.1750870664785
 s    1 1.00
                0.1938                   1
 s    1 1.00
                0.0608                   1
 p    7 1.00
                 417.6  0.0052607254496433
                 98.33   0.039840057070533
                 31.04    0.16468334447016
                 11.19    0.38738867539322
                 4.249    0.45715068247951
                 1.624    0.15166210331953
                0.5322  0.0018164626404268
 p    7 1.00
                 417.6  -0.0022919789638052
                 98.33  -0.017208759795385
                 31.04  -0.075043672871123
                 11.19   -0.17725041746276
                 4.249   -0.24469114416468
                 1.624    0.14281709332248
                0.5322    0.92503549397724
 p    1 1.00
                 0.162                   1
 p    1 1.00
                0.0466                   1
 d    1 1.00
                   0.6                   1
 d    1 1.00
                 0.196                   1

5 0
 s   11 1.00
                127900  0.00024114871589341
                 19170  0.0018709167623906
                  4363  0.0097080975316356
                  1236   0.039314601559857
                 403.6    0.12592976280573
                 145.7    0.29933568217791
                 56.81    0.42187850515402
                 23.23    0.23719678610108
                 6.644   0.019152759743309
                 2.575  -0.0033478605238743
                0.5371  0.00092986648053772
 s   11 1.00
                127900  -6.7686212144989e-05
                 19170  -0.00052025272713055
                  4363  -0.002756740476645
                  1236  -0.011119859194452
                 403.6  -0.038474810515467
                 145.7  -0.099182958837714
                 56.81   -0.20078096800963
                 23.23   -0.12991762475292
                 6.644     0.5078973280256
                 2.575    0.60887203408121
                0.5371   0.042027000220214
 s   11 1.00
                127900  3.7727423963596e-05
                 19170  0.00029134554352928
                  4363  0.0015343024394636
                  1236  0.0062554500584171
                 403.6   0.021485486904775
                 145.7   0.056985552488738
                 56.81    0.11586478291237
                 23.23   0.084709741012619
                 6.644   -0.40364106838048
                 2.575   -0.75234173435605
                0.5371     1.1750870664785
 s    1 1.00
                0.1938                   1
 s    1 1.00
                0.0608                   1
 p    7 1.00
                 417.6  0.0052607254496433
                 98.33   0.039840057070533
                 31.04    0.16468334447016
                 11.19    0.38738867539322
                 4.249    0.45715068247951
                 1.624    0.15166210331953
                0.5322  0.0018164626404268
 p    7 1.00
                 417.6  -0.0022919789638052
                 98.33  -0.017208759795385
                 31.04  -0.075043672871123
                 11.19   -0.17725041746276
                 4.249   -0.24469114416468
                 1.624    0.14281709332248
                0.5322    0.92503549397724
 p    1 1.00
                 0.162                   1
 p    1 1.00
                0.0466                   1
 d    1 1.00
                   0.6                   1
 d    1 1.00
                 0.196                   1

6 0
 s   11 1.00
                127900  0.00024114871589341
                 19170  0.0018709167623906
                  4363  0.0097080975316356
                  1236   0.039314601559857
                 403.6    0.12592976280573
                 145.7    0.29933568217791
                 56.81    0.42187850515402
                 23.23    0.23719678610108
                 6.644   0.019152759743309
                 2.575  -0.0033478605238743
                0.5371  0.00092986648053772
 s   11 1.00
                127900  -6.7686212144989e-05
                 19170  -0.00052025272713055
                  4363  -0.002756740476645
                  1236  -0.011119859194452
                 403.6  -0.038474810515467
                 145.7  -0.099182958837714
                 56.81   -0.20078096800963
                 23.23   -0.12991762475292
                 6.644     0.5078973280256
                 2.575    0.60887203408121
                0.5371   0.042027000220214
 s   11 1.00
                127900  3.7727423963596e-05
                 19170  0.00029134554352928
                  4363  0.0015343024394636
                  1236  0.0062554500584171
                 403.6   0.021485486904775
                 145.7   0.056985552488738
                 56.81    0.11586478291237
                 23.23   0.084709741012619
                 6.644   -0.40364106838048
                 2.575   -0.75234173435605
                0.5371     1.1750870664785
 s    1 1.00
                0.1938                   1
 s    1 1.00
                0.0608                   1
 p    7 1.00
                 417.6  0.0052607254496433
                 98.33   0.039840057070533
                 31.04    0.16468334447016
                 11.19    0.38738867539322
                 4.249    0.45715068247951
                 1.624    0.15166210331953
                0.5322  0.0018164626404268
 p    7 1.00
                 417.6  -0.0022919789638052
                 98.33  -0.017208759795385
                 31.04  -0.075043672871123
                 11.19   -0.17725041746276
                 4.249   -0.24469114416468
                 1.624    0.14281709332248
                0.5322    0.92503549397724
 p    1 1.00
                 0.162                   1
 p    1 1.00
                0.0466                   1
 d    1 1.00
                   0.6                   1
 d    1 1.00
                 0.196                   1

7 0
 s   11 1.00
                127900  0.00024114871589341
                 19170  0.0018709167623906
                  4363  0.0097080975316356
                  1236   0.039314601559857
                 403.6    0.12592976280573
                 145.7    0.29933568217791
                 56.81    0.42187850515402
                 23.23    0.23719678610108
                 6.644   0.019152759743309
                 2.575  -0.0033478605238743
                0.5371  0.00092986648053772
 s   11 1.00
                127900  -6.7686212144989e-05
                 19170  -0.00052025272713055
                  4363  -0.002756740476645
                  1236  -0.011119859194452
                 403.6  -0.038474810515467
                 145.7  -0.099182958837714
                 56.81   -0.20078096800963
                 23.23   -0.12991762475292
                 6.644     0.5078973280256
                 2.575    0.60887203408121
                0.5371   0.042027000220214
 s   11 1.00
                127900  3.7727423963596e-05
                 19170  0.00029134554352928
                  4363  0.0015343024394636
                  1236  0.0062554500584171
                 403.6   0.021485486904775
                 145.7   0.056985552488738
                 56.81    0.11586478291237
                 23.23   0.084709741012619
                 6.644   -0.40364106838048
                 2.575   -0.75234173435605
                0.5371     1.1750870664785
 s    1 1.00
                0.1938                   1
 s    1 1.00
                0.0608                   1
 p    7 1.00
                 417.6  0.0052607254496433
                 98.33   0.039840057070533
                 31.04    0.16468334447016
                 11.19    0.38738867539322
                 4.249    0.45715068247951
                 1.624    0.15166210331953
                0.5322  0.0018164626404268
 p    7 1.00
                 417.6  -0.0022919789638052
                 98.33  -0.017208759795385
                 31.04  -0.075043672871123
                 11.19   -0.17725041746276
                 4.249   -0.24469114416468
                 1.624    0.14281709332248
                0.5322    0.92503549397724
 p    1 1.00
                 0.162                   1
 p    1 1.00
                0.0466                   1
 d    1 1.00
                   0.6                   1
 d    1 1.00
                 0.196                   1

8 0
 s   11 1.00
                127900  0.00024114871589341
                 19170  0.0018709167623906
                  4363  0.0097080975316356
                  1236   0.039314601559857
                 403.6    0.12592976280573
                 145.7    0.29933568217791
                 56.81    0.42187850515402
                 23.23    0.23719678610108
                 6.644   0.019152759743309
                 2.575  -0.0033478605238743
                0.5371  0.00092986648053772
 s   11 1.00
                127900  -6.7686212144989e-05
                 19170  -0.00052025272713055
                  4363  -0.002756740476645
                  1236  -0.011119859194452
                 403.6  -0.038474810515467
                 145.7  -0.099182958837714
                 56.81   -0.20078096800963
                 23.23   -0.12991762475292
                 6.644     0.5078973280256
                 2.575    0.60887203408121
                0.5371   0.042027000220214
 s   11 1.00
                127900  3.7727423963596e-05
                 19170  0.00029134554352928
                  4363  0.0015343024394636
                  1236  0.0062554500584171
                 403.6   0.021485486904775
                 145.7   0.056985552488738
                 56.81    0.11586478291237
                 23.23   0.084709741012619
                 6.644   -0.40364106838048
                 2.575   -0.75234173435605
                0.5371     1.1750870664785
 s    1 1.00
                0.1938                   1
 s    1 1.00
                0.0608                   1
 p    7 1.00
                 417.6  0.0052607254496433
                 98.33   0.039840057070533
                 31.04    0.16468334447016
                 11.19    0.38738867539322
                 4.249    0.45715068247951
                 1.624    0.15166210331953
                0.5322  0.0018164626404268
 p    7 1.00
                 417.6  -0.0022919789638052
                 98.33  -0.017208759795385
                 31.04  -0.075043672871123
                 11.19   -0.17725041746276
                 4.249   -0.24469114416468
                 1.624    0.14281709332248
                0.5322    0.92503549397724
 p    1 1.00
                 0.162                   1
 p    1 1.00
                0.0466                   1
 d    1 1.00