[Molden Format]
made by pyscf v[2.2.1]
[Atoms] (AU)
Fe   1   26    10.35569916261654     2.17318504324982   -15.17450078025744
S   2   16     7.65339080448850    -1.15273293598469   -16.53510358994429
S   3   16    14.15404867299231     0.79368497231733   -17.08312416606816
Fe   4   26    11.41394579237297    -2.30546587196938   -18.19806257956155
S   5   16    10.33680190137089     2.36215765570633   -10.54467177507304
S   6   16     8.74943195673624     6.19830168857340   -16.57289811243559
S   7   16    10.86592521624911    -2.83458918684759   -22.77119980100900
S   8   16    12.96352121451632    -6.44396608476686   -16.74297346364645
C   9   6    10.41239094635349     8.40928125431453   -14.19184319548361
H   10   1    12.26432254842725     9.12737718164925   -14.96663090655529
H   11   1     9.20296622663185    10.07224024393178   -13.70051440309670
H   12   1    10.80923343251215     7.25654831832984   -12.45329516088376
C   13   6     6.80301404843422     3.21253441176060   -10.46908273009044
H   14   1     5.68807563494084     1.51178089965205   -10.99820604496866
H   15   1     6.19830168857340     3.89283581660403    -8.54156208303408
H   16   1     6.46286334601251     4.68652078892135   -11.92417184600554
C   17   6     9.84547310898397    -7.97464424566456   -17.87680913838549
H   18   1     9.63760323528181    -7.57780175950590   -19.93661061416140
H   19   1     9.84547310898397   -10.05334298268613   -17.49886391347247
H   20   1     8.25810316434932    -7.02978118338203   -16.87525429236600
C   21   6    14.41861033043142    -3.49599333044536   -23.13024776467636
H   22   1    14.92883638406399    -3.89283581660403   -25.15225471796098
H   23   1    15.49575422143351    -1.81413707958246   -22.41215183734163
H   24   1    14.90993912281834    -5.14005505881697   -21.90192578370907
[GTO]
1 0
 s    6 1.00
          60923.640643  0.0017552243692958
          9147.8893982   0.013449023284001
          2081.3505927   0.066678874640978
          587.55977067    0.23176348548844
           191.0904399    0.46945550248188
          65.732730112     0.3596824938678
 s    3 1.00
          127.25891928   -0.10723431835929
           14.83091301    0.62971616328466
          6.0653307408    0.44472317896179
 s    3 1.00
           10.44994371   -0.21694289195548
          1.7245228003    0.69457867408393
         0.71772177325    0.43298308896347
 s    1 1.00
        0.091449828308                   1
 s    1 1.00
        0.033706691021                   1
 p    5 1.00
          773.43750995  0.0091440529992506
          182.15149714   0.067887577136571
          57.547272758    0.26167978878504
          20.614988935    0.51088040113251
           7.634855789    0.33235475570224
 p    3 1.00
           3.871932799    0.33193859098144
          1.4924724132     0.5553666555499
         0.56061284958    0.23106034201617
 p    1 1.00
              0.134915                   1
 d    4 1.00
          38.968133419   0.033335938558743
          10.800067078    0.17766212505983
          3.6136457999      0.441281781625
          1.2129967888    0.57089200490673
 d    1 1.00
          0.3652439317                   1
 f    1 1.00
                 1.598                   1

2 0
 s    5 1.00
           9184.930301  -0.0054729466134731
          1381.5105503  -0.040954402155135
           313.8714758   -0.18475828956188
          88.053870623   -0.47567280643953
          27.039914905   -0.43495153584169
 s    3 1.00
          45.648731303  -0.091904045808942
          4.9664522326    0.55698777214497
          2.0116242047     0.5111546829846
 s    1 1.00
         0.35661077013                   1
 s    1 1.00
         0.13507221477                   1
 p    5 1.00
          261.98233439  -0.009183054659266
          61.306894736   -0.06590222652599
          19.103729887   -0.24587784518735
          6.6567720378    -0.4823147107602
          2.3959635161   -0.38956314351423
 p    1 1.00
         0.61776161679                   1
 p    1 1.00
         0.16993376871                   1
 d    1 1.00
                  0.55                   1

3 0
 s    5 1.00
           9184.930301  -0.0054729466134731
          1381.5105503  -0.040954402155135
           313.8714758   -0.18475828956188
          88.053870623   -0.47567280643953
          27.039914905   -0.43495153584169
 s    3 1.00
          45.648731303  -0.091904045808942
          4.9664522326    0.55698777214497
          2.0116242047     0.5111546829846
 s    1 1.00
         0.35661077013                   1
 s    1 1.00
         0.13507221477                   1
 p    5 1.00
          261.98233439  -0.009183054659266
          61.306894736   -0.06590222652599
          19.103729887   -0.24587784518735
          6.6567720378    -0.4823147107602
          2.3959635161   -0.38956314351423
 p    1 1.00
         0.61776161679                   1
 p    1 1.00
         0.16993376871                   1
 d    1 1.00
                  0.55                   1

4 0
 s    6 1.00
          60923.640643  0.0017552243692958
          9147.8893982   0.013449023284001
          2081.3505927   0.066678874640978
          587.55977067    0.23176348548844
           191.0904399    0.46945550248188
          65.732730112     0.3596824938678
 s    3 1.00
          127.25891928   -0.10723431835929
           14.83091301    0.62971616328466
          6.0653307408    0.44472317896179
 s    3 1.00
           10.44994371   -0.21694289195548
          1.7245228003    0.69457867408393
         0.71772177325    0.43298308896347
 s    1 1.00
        0.091449828308                   1
 s    1 1.00
        0.033706691021                   1
 p    5 1.00
          773.43750995  0.0091440529992506
          182.15149714   0.067887577136571
          57.547272758    0.26167978878504
          20.614988935    0.51088040113251
           7.634855789    0.33235475570224
 p    3 1.00
           3.871932799    0.33193859098144
          1.4924724132     0.5553666555499
         0.56061284958    0.23106034201617
 p    1 1.00
              0.134915                   1
 d    4 1.00
          38.968133419   0.033335938558743
          10.800067078    0.17766212505983
          3.6136457999      0.441281781625
          1.2129967888    0.57089200490673
 d    1 1.00
          0.3652439317                   1
 f    1 1.00
                 1.598                   1

5 0
 s    5 1.00
           9184.930301  -0.0054729466134731
          1381.5105503  -0.040954402155135
           313.8714758   -0.18475828956188
          88.053870623   -0.47567280643953
          27.039914905   -0.43495153584169
 s    3 1.00
          45.648731303  -0.091904045808942
          4.9664522326    0.55698777214497
          2.0116242047     0.5111546829846
 s    1 1.00
         0.35661077013                   1
 s    1 1.00
         0.13507221477                   1
 p    5 1.00
          261.98233439  -0.009183054659266
          61.306894736   -0.06590222652599
          19.103729887   -0.24587784518735
          6.6567720378    -0.4823147107602
          2.3959635161   -0.38956314351423
 p    1 1.00
         0.61776161679                   1
 p    1 1.00
         0.16993376871                   1
 d    1 1.00
                  0.55                   1

6 0
 s    5 1.00
           9184.930301  -0.0054729466134731
          1381.5105503  -0.040954402155135
           313.8714758   -0.18475828956188
          88.053870623   -0.47567280643953
          27.039914905   -0.43495153584169
 s    3 1.00
          45.648731303  -0.091904045808942
          4.9664522326    0.55698777214497
          2.0116242047     0.5111546829846
 s    1 1.00
         0.35661077013                   1
 s    1 1.00
         0.13507221477                   1
 p    5 1.00
          261.98233439  -0.009183054659266
          61.306894736   -0.06590222652599
          19.103729887   -0.24587784518735
          6.6567720378    -0.4823147107602
          2.3959635161   -0.38956314351423
 p    1 1.00
         0.61776161679                   1
 p    1 1.00
         0.16993376871                   1
 d    1 1.00
                  0.55                   1

7 0
 s    5 1.00
           9184.930301  -0.0054729466134731
          1381.5105503  -0.040954402155135
           313.8714758   -0.18475828956188
          88.053870623   -0.47567280643953
          27.039914905   -0.43495153584169
 s    3 1.00
          45.648731303  -0.091904045808942
          4.9664522326    0.55698777214497
          2.0116242047     0.5111546829846
 s    1 1.00
         0.35661077013                   1
 s    1 1.00
         0.13507221477                   1
 p    5 1.00
          261.98233439  -0.009183054659266
          61.306894736   -0.06590222652599
          19.103729887   -0.24587784518735
          6.6567720378    -0.4823147107602
          2.3959635161   -0.38956314351423
 p    1 1.00
         0.61776161679                   1
 p    1 1.00
         0.16993376871                   1
 d    1 1.00
                  0.55                   1

8 0
 s    5 1.00
           9184.930301  -0.0054729466134731
          1381.5105503  -0.040954402155135
           313.8714758   -0.18475828956188
          88.053870623   -0.47567280643953
          27.039914905   -0.43495153584169
 s    3 1.00
          45.648731303  -0.091904045808942
          4.9664522326    0.55698777214497
          2.0116242047     0.5111546829846
 s    1 1.00
         0.35661077013                   1
 s    1 1.00
         0.13507221477                   1
 p    5 1.00
          261.98233439  -0.009183054659266
          61.306894736   -0.06590222652599
          19.103729887   -0.24587784518735
          6.6567720378    -0.4823147107602
          2.3959635161   -0.38956314351423
 p    1 1.00
         0.61776161679                   1
 p    1 1.00
         0.16993376871                   1
 d    1 1.00
                  0.55                   1

9 0
 s    5 1.00
          1238.4016938  0.0055173650481097
          186.29004992   0.041088828555946
          42.251176346     0.1822538212649
          11.676557932    0.46828459437429
          3.5930506482    0.44575817336002
 s    1 1.00
         0.40245147363                   1
 s    1 1.00
         0.13090182668                   1
 p    3 1.00
          9.4680970621   0.056888332011037
          2.0103545142    0.31294059336471
         0.54771004707    0.76065016509135
 p    1 1.00
         0.15268613795                   1
 d    1 1.00
                   0.8                   1

10 0
 s    3 1.00
             13.010701   0.033485484812989
             1.9622572    0.23472187088125
            0.44453796    0.81377028525955
 s    1 1.00
            0.12194962                   1
 p    1 1.00
                   0.8                   1

11 0
 s    3 1.00
             13.010701   0.033485484812989
             1.9622572    0.23472187088125
            0.44453796    0.81377028525955
 s    1 1.00
            0.12194962                   1
 p    1 1.00
                   0.8                   1

12 0
 s    3 1.00
             13.010701   0.033485484812989
             1.9622572    0.23472187088125
            0.44453796    0.81377028525955
 s    1 1.00
            0.12194962                   1
 p    1 1.00
                   0.8                   1

13 0
 s    5 1.00
          1238.4016938  0.0055173650481097
          186.29004992   0.041088828555946
          42.251176346     0.1822538212649
          11.676557932    0.46828459437429
          3.5930506482    0.44575817336002
 s    1 1.00
         0.40245147363                   1
 s    1 1.00
         0.13090182668                   1
 p    3 1.00
          9.4680970621   0.056888332011037
          2.0103545142    0.31294059336471
         0.54771004707    0.76065016509135
 p    1 1.00
         0.15268613795                   1
 d    1 1.00
                   0.8                   1

14 0
 s    3 1.00
             13.010701   0.033485484812989
             1.9622572    0.23472187088125
            0.44453796    0.81377028525955
 s    1 1.00
            0.12194962                   1
 p    1 1.00
                   0.8                   1

15 0
 s    3 1.00
             13.010701   0.033485484812989
             1.9622572    0.23472187088125
            0.44453796    0.81377028525955
 s    1 1.00
            0.12194962                   1
 p    1 1.00
                   0.8                   1

16 0
 s    3 1.00
             13.010701   0.033485484812989
             1.9622572    0.23472187088125
            0.44453796    0.81377028525955
 s    1 1.00
            0.12194962                   1
 p    1 1.00
                   0.8                   1

17 0
 s    5 1.00
          1238.4016938  0.0055173650481097
          186.29004992   0.041088828555946
          42.251176346     0.1822538212649
          11.676557932    0.46828459437429
          3.5930506482    0.44575817336002
 s    1 1.00
         0.40245147363                   1
 s    1 1.00
         0.13090182668                   1
 p    3 1.00
          9.4680970621   0.056888332011037
          2.0103545142    0.31294059336471
         0.54771004707    0.76065016509135
 p    1 1.00
         0.15268613795                   1
 d    1 1.00
                   0.8                   1

18 0
 s    3 1.00
             13.010701   0.033485484812989
             1.9622572    0.23472187088125
            0.44453796    0.81377028525955
 s    1 1.00
            0.12194962                   1
 p    1 1.00
                   0.8                   1

19 0
 s    3 1.00
             13.010701   0.033485484812989
             1.9622572    0.23472187088125
            0.44453796    0.81377028525955
 s    1 1.00
            0.12194962                   1
 p    1 1.00
                   0.8                   1

20 0
 s    3 1.00
             13.010701   0.033485484812989
             1.9622572    0.23472187088125
            0.44453796    0.81377028525955
 s    1 1.00
            0.12194962                   1
 p    1 1.00
                   0.8                   1

21 0
 s    5 1.00
          1238.4016938  0.0055173650481097
          186.29004992   0.041088828555946
          42.251176346     0.1822538212649
          11.676557932    0.46828459437429
          3.5930506482    0.44575817336002
 s    1 1.00
         0.40245147363                   1
 s    1 1.00
         0.13090182668                   1
 p    3 1.00
          9.4680970621   0.056888332011037
          2.0103545142    0.31294059336471
         0.54771004707    0.76065016509135
 p    1 1.00
         0.15268613795                   1
 d    1 1.00
                   0.8                   1

22 0
 s    3 1.00
             13.010701   0.033485484812989
             1.9622572    0.23472187088125
            0.44453796    0.81377028525955
 s    1 1.00
            0.12194962                   1
 p    1 1.00
                   0.8                   1

23 0
 s    3 1.00
             13.010701   0.033485484812989
             1.9622572    0.23472187088125
            0.44453796    0.81377028525955
 s    1 1.00
            0.12194962                   1
 p    1 1.00
                   0.8                   1

24 0
 s    3 1.00
             13.010701   0.033485484812989
             1.9622572    0.23472187088125
            0.44453796    0.81377028525955
 s    1 1.00
            0.12194962                   1
 p    1 1.00
                   0.8                   1

[5d]
[7f]
[9g]

[MO]
 Sym= A
 Ene=               0
 Spin= Alpha
 Occup=    1.00000
   1    0.00087524449068092
   2    -0.0026236474107029
   3     0.011556530730283
   4    -0.021405291715275
   5     0.022181804196955
   6    -3.4568942409871e-06
   7    0.00029642335023714
   8    4.2211495870868e-05
   9    -2.9650534851484e-05
  10    -0.00080927525096718
  11    -6.2368247362285e-05
  12    0.00099189627905858
  13    -0.0036970802433495
  14    -0.0020628389995273
  15     0.089779527164765
  16     -0.27838652843286
  17      0.57320153645516
  18     -0.57138632848895
  19     -0.17519794682277
  20     0.022453025364742
  21    -0.076356675276873
  22      0.15550419107128
  23     -0.15404945945661
  24    -0.046610557641119
  25    -0.00012848412320342
  26    -0.00011284706064692
  27    2.2264005400557e-05
  28    -0.0003376846956298
  29    -0.00018330193275205
  30    4.1656131810469e-05
  31    -0.00039389264491647
  32    -0.00091081255059299
  33    -0.0061117279666682
  34     0.010634781899221
  35    0.0096313898962756
  36    -0.020327783612929
  37    0.0092925206359182
  38     0.004915157451246
  39    -0.034481488459538
  40     0.016050640455809
  41    0.0084861680492384
  42    -0.052042209005321
  43     0.025025428381685
  44     0.010708606111034
  45    0.0011627672584965
  46    0.0020181155714431
  47    -0.0015422356243152
  48    -0.00035439062464176
  49    0.0027354929706305
  50    -0.00094505955088488
  51    -0.006329156773352
  52     0.010906301646322
  53    0.0098116939803289
  54     0.015218997362325
  55     0.013247068165032
  56     0.012741091248773
  57      0.02572023916791
  58     0.022692934890269
  59     0.021751444867571
  60     0.039270232139673
  61      0.03242521794435
  62     0.035645295534379
  63    0.0001781906919778
  64    -0.0012288066898773
  65    -0.0027659653340899
  66    0.0015822286847233
  67    -0.0020853336810973
  68    0.0022687143914237
  69    -0.0064678413057467
  70     0.031555726206593
  71    -0.055964548315063
  72     0.010291777341557
  73    0.00084396520150931
  74    -0.003650169379185
  75    -0.0022496913628205
  76    -0.002768719587255
  77     0.011957436054908
  78    0.0073841208107742
  79    0.0045455792289218
  80     -0.01940091892255
  81    -0.011732292880322
  82     0.001801011652909
  83    0.0026091130263419
  84    -0.0052564886855646
  85    0.0026017840481906
  86    0.00053157047666153
  87    0.0038030356473169
  88    0.0032343124673527
  89    -0.0018455218007547
  90    -0.0026406868915505
  91    -0.0032257171334663
  92    -5.8502642340038e-05
  93    5.0060339468661e-05
  94    0.00022433745775006
  95    -0.00046496307513628
  96    -0.00015854801073896
  97    0.00041749018635538
  98    -0.00035621031113071
  99    0.00013262942425709
 100    0.00076723480455775
 101    0.0010376660926818
 102    -0.0041182585108947
 103    -0.00029654139762359
 104    -0.015355843549865
 105    0.0073362735701205
 106    -0.00030591034195411
 107    -0.026620723526298
 108     0.012324830567326
 109    -0.0034926141909264
 110    -0.043887361006564
 111     0.023425057033196
 112    0.00038929418544835
 113    0.0012497148208444
 114    -0.0018985966086927
 115    -0.0010091996929234
 116    0.00085132330702371
 117    -0.00045694570827834
 118    -0.003058416198663
 119    0.0056556993890606
 120    0.0033050477117678
 121    0.00048943429655649
 122    0.0017944935278378
 123    -0.010644552929704
 124    0.00082541685023438
 125     0.002677992875021
 126    -0.018533886647086
 127    0.0032549357927106
 128    0.0090123541342565
 129    -0.028360745964006
 130    0.0011494563908754
 131    -0.00021295116705847
 132    -0.0031838255458405
 133     0.001876615416582
 134    -0.0014512221359304
 135    -0.00049285475911599
 136    -0.0032668272096905
 137     0.005715224323811
 138    0.0028015057634736
 139    0.00031014673870549
 140    0.0015045646654522
 141    0.0044799459608369
 142    0.00058099045546181
 143    0.0026958713030026
 144    0.0078103118605602
 145    0.0013073191066699
 146    0.0045828268269766
 147     0.014054757177672
 148    8.8774216350461e-05
 149    0.00030314152076631
 150    -0.00048285616156757
 151    -1.9272054634981e-05
 152    4.0743149805025e-06
 153    -0.00044120286184931
 154    -0.0029237563910289
 155    0.0052359839740144
 156    0.0019010299084998
 157    -0.0014798890358889
 158    0.0042057426877406
 159    -0.00057685194840674
 160    -0.0026457912481752
 161    0.0073365062843147
 162    -0.00097107969303375
 163    -0.0046830852137422
 164     0.012846713207343
 165    -0.0017579106825974
 166    0.00029739416021028
 167    0.00012930092302665
 168    -0.00032231920874606
 169    0.0001635986293861
 170    -4.2179085720616e-05
 171    0.0023266472057792
 172    -0.0060104809001013
 173    0.0022383080036341
 174     0.005275517561648
 175    0.0089766392992826
 176     0.010012278170338
 177    0.0057210354813376
 178    0.0027746917373373
 179      0.00940448260906
 180    0.00022325773989005
 181    -0.00043135731287711
 182    -0.0004826649567205
 183    -5.2796781765873e-05
 184    -0.00079846382587309
 185    5.5181686760459e-05
 186    -0.0022648562849162
 187    -3.4635765887494e-05
 188    0.00030503364417689
 189    0.0001470293992898
 190    0.0041424993045794
 191    0.0021832735673765
 192    0.0003118868170565
 193    4.854706619663e-05
 194    0.00013838369802455
 195    0.0014351557839241
 196    -0.0056084322177277
 197    1.6304008596909e-05
 198    6.1670954548224e-05
 199    -0.0001438066443991
 200    0.0014400198676662
 201     -0.00325696868825
 202    -0.0018768509093954
 203    -0.0072274770845302
 204      0.00423624637783
 205    0.0002567389369456
 206    -0.0039478429720669
 207    0.0026580665812074
 208    -0.0012921725092297
 209    0.00046830137422396
 210    0.00017040914682161
 211    -0.00021559447746907
 212    -0.00077798712534543
 213    -0.00076498334589039
 214    -0.002692997802357
 215    -0.002389117248914
 216    -7.9689783183948e-05
 217    -0.00011086034596205
 218    -0.00012411734731956
 219    0.0020587852725565
 220    0.00088595599856086
 221    -0.00011399471775903
 222    0.00011039478339288
 223    -8.8412032539288e-05
 224    0.0044314339400897
 225    0.0021729629355022
 226    -5.8311226109882e-05
 227    -0.00022363942479353
 228    0.00018996461737378
 229    -0.00028444696051612
 230    0.00051623118695749
 231    0.0036978990343361
 232    -0.0013586224547594
 233    0.00053688812002074
 234    0.0005641210773796
 235     -0.00219736354569
 236    -8.9529623489424e-05
 237    0.00012207882375085
 238    -2.2155637684074e-05
 239    -7.2163860762373e-05
 240    3.1204881059603e-05
 241    -0.00014367634241685
 242    0.00020656807781516
 243    -9.8837601519103e-05
 244    -0.0024404506067469
 245    5.0013483575572e-05
 246    0.00011591603379317
 247    -4.1986496157269e-05
 248    0.00043777225750712
 249    -0.00051660585371894
 250    -0.00011738327472786
 251    -4.0639602884177e-05
 252    1.8852352850215e-05
 253    0.0004041284126314
 254    -0.0034517674173484
 255    -9.0662118166036e-06
 256    -0.00025652073619367
 257    2.8459746845497e-05
 258    -0.00024085722455819
 259    0.00037372755481338
 260    0.0038795021561357
 261    0.0012564887527881
 262    0.0011358043854185
 263    0.00047922897309606
 264    0.0025853167517798
 265    0.0010527161486935
 266    0.00034432222977063
 267    3.4216153430563e-05
 268    -0.00028133866678978
 269    2.9380121138854e-05
 270    -2.7158669589182e-05
 271    -4.7586627144493e-05
 272    0.00056248952306836
 273    -0.00028560748167942
 274    0.00012182747946614
 275    2.7914984075659e-05
 276    -2.3533933443414e-05
 277    0.00043537041975451
 278    -0.0043299130484155
 279    9.3671552706861e-05
 280    -4.7524990099069e-05
 281    -0.00024004156658243
 282    -0.00016551372316596
 283    -0.0022901724906106
 284    -7.9663051098469e-05
 285    -1.0875155810789e-05
 286    0.00011263816211608
 Sym= A
 Ene=               1
 Spin= Alpha
 Occup=    1.00000
   1    9.6098973015243e-05
   2    -0.00029456509871494
   3    0.0012429722625415
   4    -0.0027927902244657
   5     0.009490616097639
   6    0.0006951190184127
   7    -0.0011364228183034
   8    -0.0004432270449747
   9    -0.0021962192071277
  10    0.0035895212570295
  11    0.0014504820922193
  12    0.0046146079781078
  13    -0.0082360985246642
  14    -0.0050575202459979
  15    -0.0044232487161345
  16      0.64349612755987
  17      0.36956541682087
  18      0.18953514876603
  19     -0.43069505437882
  20    -0.0010095458321531
  21      0.17130474692907
  22      0.09751937572976
  23     0.050331546429825
  24     -0.11381017324963
  25    -0.00018755709865046
  26    0.00036098558974678
  27    0.00016213927359388
  28    -0.00012767147843541
  29    0.00026476914368442
  30    0.00029860099820533
  31    0.00013668705440682
  32    -0.0003004656035589
  33    -0.0020027841416077
  34    0.0034117573996429
  35    0.0019351481720221
  36    0.00094536990996151
  37    -0.010536577078002
  38     0.024356001504265
  39    0.0015368341166706
  40    -0.017615809729847
  41     0.041046874093352
  42    0.0048051540313335
  43     -0.03332480465014
  44     0.073321949970626
  45    -0.0023475782712124
  46    0.0015936467491801
  47    -0.0014337067541005
  48    -0.00093642178659848
  49    -0.00057818163468633
  50    -0.00029161650813372
  51    -0.0019298371869571
  52    0.0030438738097922
  53    0.0018054137612067
  54    -0.0026172470166085
  55     0.016800601253325
  56    -0.016969094848915
  57    -0.0043839845873168
  58     0.028395516308862
  59    -0.028506654758202
  60    -0.0088897023244181
  61     0.049012303711505
  62    -0.053456294647304
  63    0.0024436967707639
  64    0.00037187617717004
  65    0.00073231777082111
  66    0.0020222361751435
  67    -0.00014380233486044
  68    0.00053117460162721
  69    -0.0015108072049883
  70    0.0074043930712509
  71    -0.011121497764005
  72    -0.0047291661063668
  73    0.00016996879031795
  74    -0.0010358068525793
  75    -0.0005024759133897
  76    -0.00056164890720757
  77    0.0033925619342668
  78    0.0016577988456989
  79    0.00098044836521922
  80    -0.0064716860720351
  81    -0.003169828787675
  82    0.0013024577580933
  83    -0.0018247077518545
  84    -0.0018563500641809
  85    -0.00062487609971699
  86    0.0015761300758107
  87    0.0021375706112803
  88    -0.0042462102512957
  89    -0.0023348179490484
  90    -0.003051221598597
  91     0.001844417132464
  92    3.3682652602124e-05
  93    -0.00028324255355995
  94    -6.5330734560379e-06
  95    -2.7803815639959e-05
  96    -0.00019020055816318
  97    -2.9811593610436e-05
  98    -0.00030046945849244
  99    0.00062380999288815
 100    0.0040594732120043
 101    -0.0050660917922172
 102    -0.0090728578262616
 103    -0.0079710959573469
 104    -0.012174500070366
 105    0.0010854804220994
 106    -0.013679511078834
 107    -0.020904698556754
 108    0.0020275560770496
 109    -0.020354549251491
 110    -0.036964605216318
 111    0.0019645989569997
 112    -0.001210988543694
 113    -0.0024203808677031
 114    -0.00075048245462987
 115    0.0022481074322174
 116    -0.00098983563653359
 117    0.00060691292306364
 118    0.0039281897483274
 119    -0.0042679147417738
 120    -0.0087779802589021
 121     0.014307052152509
 122      0.00446004797777
 123    -0.0097176673693735
 124     0.024607873998159
 125    0.0077154346651611
 126    -0.016746668309459
 127     0.041448353768457
 128     0.011838364572034
 129    -0.030021971278405
 130    -0.00022768619428954
 131    0.00072283245822992
 132    0.00078126662245099
 133    -0.0015542068092762
 134    0.0024840871873842
 135    -0.00028126777786156
 136    -0.0018446150962681
 137    0.0023546150903705
 138    0.0051212311868977
 139    -0.00060217738489146
 140    -3.3768074237728e-05
 141    0.0014925745309569
 142    -0.0016105774261549
 143    -5.6359333276549e-05
 144     0.002760787178264
 145     0.002030098687663
 146    3.2500528007274e-06
 147     0.003830181644215
 148    0.00012611306268059
 149    0.00075147078389911
 150    -0.00013918809336383
 151    -0.00044208142302995
 152    0.00037971164890478
 153    -0.00021394778861513
 154    -0.0013941862787619
 155    0.0016170763722346
 156    0.0043011371995061
 157    0.00035089410625692
 158    0.0012451789934559
 159    -0.00052463518965221
 160     0.001049202888235
 161    0.0023975574941114
 162    -0.00090024204429228
 163    -0.0019332371731713
 164    0.0023009591434162
 165    -0.0017023333357348
 166    0.00027016044162341
 167    -0.00016932564498929
 168    -0.00013761822136913
 169    0.00017631414041132
 170    -0.000733842869776
 171    -0.0020493963699729
 172    0.0039551933669554
 173     0.011176033305182
 174    -0.0046041762564346
 175    -0.0068040807390116
 176    -0.0011199991536054
 177    -0.002434659486778
 178    -0.004738990796682
 179    0.00057878652814146
 180    0.0010633928023014
 181    0.00029017265887827
 182    0.00060621879643852
 183    -0.00048510535973195
 184    -0.00057521197248621
 185    -0.0072953751464565
 186     -0.00709767299421
 187    9.1812522584977e-05
 188    -0.00031771933664058
 189    -0.00035682876996014
 190    0.0004218782412927
 191    -0.0007313921850554
 192    -0.00012126295572002
 193    -6.9489286331472e-05
 194    0.00014093086686727
 195    0.0031925902843196
 196    -0.0056461664958619
 197    -0.00012413370806696
 198    0.00025381245082279
 199    -0.00027456229436644
 200    -0.0028971343101425
 201     0.006204599619584
 202     0.008373454668538
 203     0.011779863345231
 204    0.0013580786621354
 205    -0.0042341253026774
 206    0.0081942144925614
 207    0.0041410560795256
 208    -0.0018932286488583
 209    -0.00052241284145581
 210    0.0003905861788158
 211    -0.00046550409825863
 212    0.0001853549054072
 213    -0.0011769923355991
 214    -0.0048194734718515
 215    -0.0010578865929301
 216    0.00040874466484299
 217    -0.00030804516815989
 218    -0.00037206534419753
 219    -0.003985586144311
 220    -0.0038865651166607
 221    0.00018688250932079
 222    0.00014890105606585
 223    7.7485302717628e-05
 224    0.0042680240529037
 225    -0.0055258709340902
 226    4.0306642529319e-05
 227    -0.00026060309552573
 228    0.00038263829085115
 229    0.0008287909468347
 230    -0.00087808107937309
 231    -0.011933207852772
 232    -0.00087394833052646