[Molden Format]
made by pyscf v[2.2.1]
[Atoms] (AU)
Fe   1   26    10.35569916261654     2.17318504324982   -15.17450078025744
S   2   16     7.65339080448850    -1.15273293598469   -16.53510358994429
S   3   16    14.15404867299231     0.79368497231733   -17.08312416606816
Fe   4   26    11.41394579237297    -2.30546587196938   -18.19806257956155
S   5   16    10.33680190137089     2.36215765570633   -10.54467177507304
S   6   16     8.74943195673624     6.19830168857340   -16.57289811243559
S   7   16    10.86592521624911    -2.83458918684759   -22.77119980100900
S   8   16    12.96352121451632    -6.44396608476686   -16.74297346364645
C   9   6    10.41239094635349     8.40928125431453   -14.19184319548361
H   10   1    12.26432254842725     9.12737718164925   -14.96663090655529
H   11   1     9.20296622663185    10.07224024393178   -13.70051440309670
H   12   1    10.80923343251215     7.25654831832984   -12.45329516088376
C   13   6     6.80301404843422     3.21253441176060   -10.46908273009044
H   14   1     5.68807563494084     1.51178089965205   -10.99820604496866
H   15   1     6.19830168857340     3.89283581660403    -8.54156208303408
H   16   1     6.46286334601251     4.68652078892135   -11.92417184600554
C   17   6     9.84547310898397    -7.97464424566456   -17.87680913838549
H   18   1     9.63760323528181    -7.57780175950590   -19.93661061416140
H   19   1     9.84547310898397   -10.05334298268613   -17.49886391347247
H   20   1     8.25810316434932    -7.02978118338203   -16.87525429236600
C   21   6    14.41861033043142    -3.49599333044536   -23.13024776467636
H   22   1    14.92883638406399    -3.89283581660403   -25.15225471796098
H   23   1    15.49575422143351    -1.81413707958246   -22.41215183734163
H   24   1    14.90993912281834    -5.14005505881697   -21.90192578370907
[GTO]
1 0
 s    6 1.00
          60923.640643  0.0017552243692958
          9147.8893982   0.013449023284001
          2081.3505927   0.066678874640978
          587.55977067    0.23176348548844
           191.0904399    0.46945550248188
          65.732730112     0.3596824938678
 s    3 1.00
          127.25891928   -0.10723431835929
           14.83091301    0.62971616328466
          6.0653307408    0.44472317896179
 s    3 1.00
           10.44994371   -0.21694289195548
          1.7245228003    0.69457867408393
         0.71772177325    0.43298308896347
 s    1 1.00
        0.091449828308                   1
 s    1 1.00
        0.033706691021                   1
 p    5 1.00
          773.43750995  0.0091440529992506
          182.15149714   0.067887577136571
          57.547272758    0.26167978878504
          20.614988935    0.51088040113251
           7.634855789    0.33235475570224
 p    3 1.00
           3.871932799    0.33193859098144
          1.4924724132     0.5553666555499
         0.56061284958    0.23106034201617
 p    1 1.00
              0.134915                   1
 d    4 1.00
          38.968133419   0.033335938558743
          10.800067078    0.17766212505983
          3.6136457999      0.441281781625
          1.2129967888    0.57089200490673
 d    1 1.00
          0.3652439317                   1
 f    1 1.00
                 1.598                   1

2 0
 s    5 1.00
           9184.930301  -0.0054729466134731
          1381.5105503  -0.040954402155135
           313.8714758   -0.18475828956188
          88.053870623   -0.47567280643953
          27.039914905   -0.43495153584169
 s    3 1.00
          45.648731303  -0.091904045808942
          4.9664522326    0.55698777214497
          2.0116242047     0.5111546829846
 s    1 1.00
         0.35661077013                   1
 s    1 1.00
         0.13507221477                   1
 p    5 1.00
          261.98233439  -0.009183054659266
          61.306894736   -0.06590222652599
          19.103729887   -0.24587784518735
          6.6567720378    -0.4823147107602
          2.3959635161   -0.38956314351423
 p    1 1.00
         0.61776161679                   1
 p    1 1.00
         0.16993376871                   1
 d    1 1.00
                  0.55                   1

3 0
 s    5 1.00
           9184.930301  -0.0054729466134731
          1381.5105503  -0.040954402155135
           313.8714758   -0.18475828956188
          88.053870623   -0.47567280643953
          27.039914905   -0.43495153584169
 s    3 1.00
          45.648731303  -0.091904045808942
          4.9664522326    0.55698777214497
          2.0116242047     0.5111546829846
 s    1 1.00
         0.35661077013                   1
 s    1 1.00
         0.13507221477                   1
 p    5 1.00
          261.98233439  -0.009183054659266
          61.306894736   -0.06590222652599
          19.103729887   -0.24587784518735
          6.6567720378    -0.4823147107602
          2.3959635161   -0.38956314351423
 p    1 1.00
         0.61776161679                   1
 p    1 1.00
         0.16993376871                   1
 d    1 1.00
                  0.55                   1

4 0
 s    6 1.00
          60923.640643  0.0017552243692958
          9147.8893982   0.013449023284001
          2081.3505927   0.066678874640978
          587.55977067    0.23176348548844
           191.0904399    0.46945550248188
          65.732730112     0.3596824938678
 s    3 1.00
          127.25891928   -0.10723431835929
           14.83091301    0.62971616328466
          6.0653307408    0.44472317896179
 s    3 1.00
           10.44994371   -0.21694289195548
          1.7245228003    0.69457867408393
         0.71772177325    0.43298308896347
 s    1 1.00
        0.091449828308                   1
 s    1 1.00
        0.033706691021                   1
 p    5 1.00
          773.43750995  0.0091440529992506
          182.15149714   0.067887577136571
          57.547272758    0.26167978878504
          20.614988935    0.51088040113251
           7.634855789    0.33235475570224
 p    3 1.00
           3.871932799    0.33193859098144
          1.4924724132     0.5553666555499
         0.56061284958    0.23106034201617
 p    1 1.00
              0.134915                   1
 d    4 1.00
          38.968133419   0.033335938558743
          10.800067078    0.17766212505983
          3.6136457999      0.441281781625
          1.2129967888    0.57089200490673
 d    1 1.00
          0.3652439317                   1
 f    1 1.00
                 1.598                   1

5 0
 s    5 1.00
           9184.930301  -0.0054729466134731
          1381.5105503  -0.040954402155135
           313.8714758   -0.18475828956188
          88.053870623   -0.47567280643953
          27.039914905   -0.43495153584169
 s    3 1.00
          45.648731303  -0.091904045808942
          4.9664522326    0.55698777214497
          2.0116242047     0.5111546829846
 s    1 1.00
         0.35661077013                   1
 s    1 1.00
         0.13507221477                   1
 p    5 1.00
          261.98233439  -0.009183054659266
          61.306894736   -0.06590222652599
          19.103729887   -0.24587784518735
          6.6567720378    -0.4823147107602
          2.3959635161   -0.38956314351423
 p    1 1.00
         0.61776161679                   1
 p    1 1.00
         0.16993376871                   1
 d    1 1.00
                  0.55                   1

6 0
 s    5 1.00
           9184.930301  -0.0054729466134731
          1381.5105503  -0.040954402155135
           313.8714758   -0.18475828956188
          88.053870623   -0.47567280643953
          27.039914905   -0.43495153584169
 s    3 1.00
          45.648731303  -0.091904045808942
          4.9664522326    0.55698777214497
          2.0116242047     0.5111546829846
 s    1 1.00
         0.35661077013                   1
 s    1 1.00
         0.13507221477                   1
 p    5 1.00
          261.98233439  -0.009183054659266
          61.306894736   -0.06590222652599
          19.103729887   -0.24587784518735
          6.6567720378    -0.4823147107602
          2.3959635161   -0.38956314351423
 p    1 1.00
         0.61776161679                   1
 p    1 1.00
         0.16993376871                   1
 d    1 1.00
                  0.55                   1

7 0
 s    5 1.00
           9184.930301  -0.0054729466134731
          1381.5105503  -0.040954402155135
           313.8714758   -0.18475828956188
          88.053870623   -0.47567280643953
          27.039914905   -0.43495153584169
 s    3 1.00
          45.648731303  -0.091904045808942
          4.9664522326    0.55698777214497
          2.0116242047     0.5111546829846
 s    1 1.00
         0.35661077013                   1
 s    1 1.00
         0.13507221477                   1
 p    5 1.00
          261.98233439  -0.009183054659266
          61.306894736   -0.06590222652599
          19.103729887   -0.24587784518735
          6.6567720378    -0.4823147107602
          2.3959635161   -0.38956314351423
 p    1 1.00
         0.61776161679                   1
 p    1 1.00
         0.16993376871                   1
 d    1 1.00
                  0.55                   1

8 0
 s    5 1.00
           9184.930301  -0.0054729466134731
          1381.5105503  -0.040954402155135
           313.8714758   -0.18475828956188
          88.053870623   -0.47567280643953
          27.039914905   -0.43495153584169
 s    3 1.00
          45.648731303  -0.091904045808942
          4.9664522326    0.55698777214497
          2.0116242047     0.5111546829846
 s    1 1.00
         0.35661077013                   1
 s    1 1.00
         0.13507221477                   1
 p    5 1.00
          261.98233439  -0.009183054659266
          61.306894736   -0.06590222652599
          19.103729887   -0.24587784518735
          6.6567720378    -0.4823147107602
          2.3959635161   -0.38956314351423
 p    1 1.00
         0.61776161679                   1
 p    1 1.00
         0.16993376871                   1
 d    1 1.00
                  0.55                   1

9 0
 s    5 1.00
          1238.4016938  0.0055173650481097
          186.29004992   0.041088828555946
          42.251176346     0.1822538212649
          11.676557932    0.46828459437429
          3.5930506482    0.44575817336002
 s    1 1.00
         0.40245147363                   1
 s    1 1.00
         0.13090182668                   1
 p    3 1.00
          9.4680970621   0.056888332011037
          2.0103545142    0.31294059336471
         0.54771004707    0.76065016509135
 p    1 1.00
         0.15268613795                   1
 d    1 1.00
                   0.8                   1

10 0
 s    3 1.00
             13.010701   0.033485484812989
             1.9622572    0.23472187088125
            0.44453796    0.81377028525955
 s    1 1.00
            0.12194962                   1
 p    1 1.00
                   0.8                   1

11 0
 s    3 1.00
             13.010701   0.033485484812989
             1.9622572    0.23472187088125
            0.44453796    0.81377028525955
 s    1 1.00
            0.12194962                   1
 p    1 1.00
                   0.8                   1

12 0
 s    3 1.00
             13.010701   0.033485484812989
             1.9622572    0.23472187088125
            0.44453796    0.81377028525955
 s    1 1.00
            0.12194962                   1
 p    1 1.00
                   0.8                   1

13 0
 s    5 1.00
          1238.4016938  0.0055173650481097
          186.29004992   0.041088828555946
          42.251176346     0.1822538212649
          11.676557932    0.46828459437429
          3.5930506482    0.44575817336002
 s    1 1.00
         0.40245147363                   1
 s    1 1.00
         0.13090182668                   1
 p    3 1.00
          9.4680970621   0.056888332011037
          2.0103545142    0.31294059336471
         0.54771004707    0.76065016509135
 p    1 1.00
         0.15268613795                   1
 d    1 1.00
                   0.8                   1

14 0
 s    3 1.00
             13.010701   0.033485484812989
             1.9622572    0.23472187088125
            0.44453796    0.81377028525955
 s    1 1.00
            0.12194962                   1
 p    1 1.00
                   0.8                   1

15 0
 s    3 1.00
             13.010701   0.033485484812989
             1.9622572    0.23472187088125
            0.44453796    0.81377028525955
 s    1 1.00
            0.12194962                   1
 p    1 1.00
                   0.8                   1

16 0
 s    3 1.00
             13.010701   0.033485484812989
             1.9622572    0.23472187088125
            0.44453796    0.81377028525955
 s    1 1.00
            0.12194962                   1
 p    1 1.00
                   0.8                   1

17 0
 s    5 1.00
          1238.4016938  0.0055173650481097
          186.29004992   0.041088828555946
          42.251176346     0.1822538212649
          11.676557932    0.46828459437429
          3.5930506482    0.44575817336002
 s    1 1.00
         0.40245147363                   1
 s    1 1.00
         0.13090182668                   1
 p    3 1.00
          9.4680970621   0.056888332011037
          2.0103545142    0.31294059336471
         0.54771004707    0.76065016509135
 p    1 1.00
         0.15268613795                   1
 d    1 1.00
                   0.8                   1

18 0
 s    3 1.00
             13.010701   0.033485484812989
             1.9622572    0.23472187088125
            0.44453796    0.81377028525955
 s    1 1.00
            0.12194962                   1
 p    1 1.00
                   0.8                   1

19 0
 s    3 1.00
             13.010701   0.033485484812989
             1.9622572    0.23472187088125
            0.44453796    0.81377028525955
 s    1 1.00
            0.12194962                   1
 p    1 1.00
                   0.8                   1

20 0
 s    3 1.00
             13.010701   0.033485484812989
             1.9622572    0.23472187088125
            0.44453796    0.81377028525955
 s    1 1.00
            0.12194962                   1
 p    1 1.00
                   0.8                   1

21 0
 s    5 1.00
          1238.4016938  0.0055173650481097
          186.29004992   0.041088828555946
          42.251176346     0.1822538212649
          11.676557932    0.46828459437429
          3.5930506482    0.44575817336002
 s    1 1.00
         0.40245147363                   1
 s    1 1.00
         0.13090182668                   1
 p    3 1.00
          9.4680970621   0.056888332011037
          2.0103545142    0.31294059336471
         0.54771004707    0.76065016509135
 p    1 1.00
         0.15268613795                   1
 d    1 1.00
                   0.8                   1

22 0
 s    3 1.00
             13.010701   0.033485484812989
             1.9622572    0.23472187088125
            0.44453796    0.81377028525955
 s    1 1.00
            0.12194962                   1
 p    1 1.00
                   0.8                   1

23 0
 s    3 1.00
             13.010701   0.033485484812989
             1.9622572    0.23472187088125
            0.44453796    0.81377028525955
 s    1 1.00
            0.12194962                   1
 p    1 1.00
                   0.8                   1

24 0
 s    3 1.00
             13.010701   0.033485484812989
             1.9622572    0.23472187088125
            0.44453796    0.81377028525955
 s    1 1.00
            0.12194962                   1
 p    1 1.00
                   0.8                   1

[5d]
[7f]
[9g]

[MO]
 Sym= A
 Ene=               0
 Spin= Alpha
 Occup=    1.00000
   1    0.00084029134912698
   2    -0.0025245848033982
   3     0.011067405088668
   4    -0.020456439242971
   5     0.022016472251812
   6    1.0597798132984e-05
   7    0.0002375194881233
   8    -4.9214958762557e-07
   9    -7.6102466375169e-05
  10    -0.00061449883147074
  11    7.8631382397845e-05
  12     0.001079972931224
  13    -0.0040654543055564
  14    -0.0023344421584401
  15     0.089779550509962
  16     -0.27839859809076
  17      0.57328478598211
  18     -0.57144577686203
  19     -0.17522601833112
  20     0.022383545028276
  21    -0.076394993703704
  22      0.15559364547979
  23     -0.15400660593842
  24    -0.046565799566015
  25    -0.00012867116798276
  26    -0.00011253660363173
  27    2.4768817154528e-05
  28    -0.00034287335096097
  29    -0.00018558577257881
  30    4.5863674653308e-05
  31    -0.00039819317373553
  32    -0.00089623735350633
  33    -0.006012095093341
  34     0.010506069214015
  35    0.0095234316850538
  36    -0.020223760989007
  37    0.0095261958331649
  38    0.0050620954012208
  39    -0.033854171133666
  40     0.016640885762147
  41    0.0087141030786296
  42    -0.051343391967143
  43     0.025639995890642
  44     0.010924188536243
  45    0.0011445833432986
  46    0.0020254802502247
  47    -0.0015115575312615
  48    -0.00036531423383459
  49    0.0027659643814443
  50    -0.00093024629432347
  51    -0.0062280073887088
  52     0.010778768411636
  53    0.0096906047252336
  54     0.015018286483924
  55     0.013414832145506
  56     0.012853862722876
  57     0.024922898499461
  58     0.022890474240601
  59      0.02202156957174
  60     0.038418285670165
  61     0.032603812637473
  62     0.035911134286441
  63    0.00016275614545879
  64    -0.0012585151293401
  65    -0.002743588233038
  66    0.0015966213156159
  67    -0.0021073679349941
  68     0.002255542180802
  69    -0.0064291389072821
  70     0.031377615384556
  71    -0.055660284367712
  72    0.0099025658560818
  73    0.0008376213147175
  74    -0.0036171263141922
  75    -0.0022224079930104
  76    -0.0027483902597567
  77     0.011852876384601
  78    0.0072979703985037
  79    0.0045350435650491
  80    -0.019313326200627
  81    -0.011653420974401
  82    0.0028546668225052
  83     0.004832954117144
  84     -0.01259968235126
  85    0.0073952132375831
  86    0.0026642580718608
  87    0.0042054149714729
  88     0.004355512783011
  89    -0.0054707161230553
  90    -7.0936003519465e-05
  91    -0.0020805217801535
  92    -5.9274182981937e-05
  93    4.8988719993948e-05
  94    0.00022439663645072
  95    -0.00046544710023639
  96    -0.00016055240538632
  97    0.00041773446049588
  98    -0.00035665224617402
  99    0.00013927163460468
 100    0.00081108097427659
 101    0.0009587652639503
 102    -0.0041447094999987
 103    -0.00029714861383209
 104    -0.015336255508085
 105    0.0073990601627034
 106    -0.00030737418611862
 107     -0.02658596014242
 108     0.012433923344304
 109    -0.003485553504396
 110     -0.04382428535029
 111     0.023612218336624
 112    0.00038886246160591
 113     0.001246792796571
 114    -0.0018914254664915
 115    -0.0010083720299683
 116    0.00085030539759794
 117    -0.00044884813844584
 118    -0.0030049514612772
 119    0.0055617729033225
 120    0.0032620253004403
 121    0.00046116302493787
 122    0.0018500879646719
 123    -0.010655911355571
 124    0.00077655388528078
 125    0.0027761222493801
 126    -0.018552650011467
 127    0.0031623641812448
 128    0.0091693382308556
 129    -0.028397096818667
 130    0.0011452910074867
 131    -0.00021286029032257
 132    -0.0031746711658816
 133    0.0018706211615302
 134    -0.0014481859945999
 135    -0.00048629413604513
 136    -0.0032232314319611
 137    0.0056277054567652
 138    0.0028161525432434
 139    0.00031739956126951
 140    0.0012286811274523
 141    0.0044994219891237
 142    0.00059719412781277
 143    0.0022161595467283
 144    0.0078429388750577
 145    0.0012772503136873
 146    0.0037775707870506
 147     0.014144183828776
 148    7.4039873212473e-05
 149    0.00028495716843919
 150    -0.00045374038243576
 151    -8.4310754760113e-06
 152    -7.3663448667021e-06
 153    -0.00043830109576083
 154    -0.0029041615508437
 155    0.0051792797832399
 156    0.0019495707874601
 157    -0.0014137450346899
 158    0.0041563847861045
 159    -0.00084932774254573
 160    -0.0025336444399583
 161    0.0072492213639364
 162    -0.0014445543193203
 163    -0.0044580071046057
 164     0.012746758217111
 165    -0.0025622950853664
 166    0.0002768445236524
 167    0.00013207649491904
 168    -0.00029352555711293
 169    0.00015791461837988
 170    -3.091767611973e-05
 171    0.0023189860893073
 172    -0.0059904794314475
 173    0.0022218826430848
 174    0.0052624421609221
 175     0.008950525648878
 176    0.0099945364248043
 177    0.0057009561575558
 178    0.0027598519142503
 179    0.0093708224762241
 180    0.0002258207092713
 181    -0.00042833333266476
 182    -0.00048366356622586
 183    -4.9296514200108e-05
 184    -0.00079725663318516
 185    5.0769892654564e-05
 186    -0.0022522394114906
 187    -3.4583883273166e-05
 188    0.00030356498111089
 189    0.0001470813004546
 190    0.0041197282593579
 191    0.0021691362587473
 192    0.00031042273111702
 193    4.6919221210737e-05
 194    0.00013782762460636
 195    0.0014460883692418
 196    -0.0055535287466856
 197    1.6395836161002e-05
 198    6.4563946968619e-05
 199    -0.00014467874604761
 200    0.0014396954016048
 201    -0.0032582124671813
 202    -0.0018838804620486
 203    -0.0072130648424489
 204    0.0042389780734672
 205    0.00025802592681969
 206    -0.0039276001649039
 207    0.0026499556352751
 208    -0.0012923242255247
 209    0.00046781667708444
 210    0.00017469387256377
 211    -0.00021603258800915
 212    -0.0007778170241673
 213    -0.00076370589114783
 214    -0.002693146612944
 215    -0.0023763827770681
 216    -7.9498547311056e-05
 217    -0.00011135284534411
 218    -0.00012570216804784
 219     0.002044628823543
 220    0.00088290274893681
 221    -0.00011202454887392
 222    0.00011064733524078
 223    -8.8595437547389e-05
 224    0.0044320278010072
 225    0.0022024290470882
 226    -5.956931624266e-05
 227    -0.00022409606772809
 228    0.00019136945307531
 229    -0.00030771489389614
 230    0.00056957877206064
 231    0.0036644237323242
 232    -0.0012886517348915
 233    0.00060985636413633
 234    0.00063544252930281
 235    -0.0021339837406391
 236    -4.9754155959864e-05
 237    0.00020867353084521
 238    -3.3676387352421e-05
 239    -8.0978405512097e-05
 240    2.9524822955042e-05
 241    -0.0001290414984817
 242    0.00020908343446447
 243    -0.0001656357569741
 244    -0.0023656146632692
 245    5.3651768154479e-05
 246    0.00011991010616935
 247    -4.4923263512371e-05
 248    0.00040099435803221
 249    -0.00052662704828158
 250    -0.00011678674675821
 251    -3.9841900303279e-05
 252    2.129224133521e-05
 253    0.00046532711916151
 254    -0.0033978707646958
 255    -5.3337914760939e-06
 256    -0.00026013188514909
 257    2.6323430987332e-05
 258    -0.00026611307700982
 259    0.0004322222587067
 260    0.0038399693116794
 261    0.0011449640846865
 262    0.0012045745591974
 263    0.00050903194676923
 264    0.0024815027050809
 265    0.0011244977816347
 266    0.00033384929567949
 267    2.5406120690028e-05
 268    -0.00028017317037129
 269    3.0485997692779e-05
 270    -1.5294397619368e-05
 271    -3.2049695044591e-05
 272    0.00051289769859975
 273    -0.00030547883372338
 274    0.00012001249270493
 275    3.0244892586223e-05
 276    -2.4320665378708e-05
 277    0.00050016855283105
 278    -0.0042574086039663
 279    9.1814892566197e-05
 280    -5.1999190505763e-05
 281    -0.00024259413108127
 282    -0.00022525584121746
 283    -0.0022042669387488
 284    -8.332038410478e-05
 285    -1.2857708572949e-05
 286    0.00011691321413781
 Sym= A
 Ene=               1
 Spin= Alpha
 Occup=    1.00000
   1    8.9049475746812e-05
   2    -0.0002745596789669
   3    0.0011444278664823
   4    -0.0026013674293264
   5    0.0094453250025083
   6    0.0006986252587561
   7    -0.0011475528995179
   8    -0.00045448798421812
   9    -0.0022077426712706
  10    0.0036263392342155
  11    0.0014875294199567
  12    0.0046350738941787
  13    -0.008300381977011
  14    -0.0051341580476704
  15    -0.0044121532456216
  16      0.64347554809107
  17      0.36957997606579
  18      0.18951676551852
  19     -0.43069240608116
  20    -0.0010153600530782
  21      0.17130943602669
  22      0.09754798679691
  23     0.050346945964459
  24     -0.11380898192826
  25    -0.00018730669011391
  26    0.00036051468603182
  27    0.00016238434016409
  28    -0.0001287123714411
  29    0.00026393435667572
  30    0.00029901324527691
  31    0.00013559690619911
  32    -0.00029868284411761
  33    -0.0019904891058992
  34    0.0034043086126038
  35    0.0019193366798597
  36    0.00093293727423968
  37    -0.010404359559482
  38     0.024243053211365
  39     0.001643963583471
  40    -0.017403879509864
  41     0.040891364535843
  42    0.0049122413992321
  43    -0.033084471441861
  44     0.073114763824162
  45    -0.0023611739543548
  46    0.0015951649451531
  47    -0.001433278537928
  48    -0.00094076443578452
  49    -0.00057608772318765
  50    -0.00028911729497365
  51    -0.0019126471757432
  52    0.0030293832835429
  53    0.0017824997358344
  54    -0.002628359579955
  55     0.016758946529123
  56    -0.016831494251731
  57    -0.0045370326594482
  58     0.028375903322832
  59    -0.028378308882767
  60    -0.0090542027581906
  61     0.048981112341255
  62    -0.053327840007614
  63    0.0024467232844706
  64    0.00036911453681855
  65    0.00074159146578987
  66    0.0020307106250491
  67    -0.00014665457143871
  68    0.00052640399213284
  69    -0.001496872283783
  70    0.0073396740802652
  71    -0.011008036711874
  72    -0.0048053062278458
  73    0.00016964481056003
  74    -0.0010304187210067
  75    -0.00049153484714725
  76    -0.00056042797009851
  77    0.0033754239017299
  78    0.0016233632387905
  79    0.00098058749826346
  80    -0.0064605131318164
  81    -0.0031407446651716
  82    0.0023344564185064
  83    -0.0030503495087687
  84    -0.0039834480344689
  85    -0.00033752438037951
  86     0.002970970732745
  87     0.002622252965102
  88    -0.0049257122651595
  89    -0.0034148720380911
  90    -0.0029011854060558
  91    0.0026191926028719
  92    3.3765307467885e-05
  93    -0.00028235590077201
  94    -6.4624612494903e-06
  95    -2.8544647478388e-05
  96    -0.0001905742355456
  97    -3.0080032910439e-05
  98    -0.00029967112174917
  99    0.00062470980083785
 100     0.004065335025209
 101    -0.0050771650964236
 102    -0.0090720707235276
 103    -0.0079735226751339
 104    -0.012174617249918
 105    0.0010947266131326
 106    -0.013684990226941
 107    -0.020905312326848
 108    0.0020435923331301
 109    -0.020353606880723
 110    -0.036962282601045
 111    0.0019860791250997
 112    -0.001210737955548
 113    -0.0024216222256105
 114    -0.00075006011421226
 115    0.0022495138582592
 116    -0.00099085169774235
 117    0.00060920430170572
 118    0.0039433554851403
 119    -0.0042925547838104
 120    -0.0087996640223433
 121     0.014304447718895
 122    0.0044736368043232
 123    -0.0097217930513734
 124     0.024604707458598
 125    0.0077407008071857
 126    -0.016752945071782
 127     0.041429885435764
 128     0.011871810348221
 129    -0.030041305173187
 130    -0.00022875970990839
 131    0.00072318150018285
 132    0.00078448262208015
 133    -0.0015560771270022
 134    0.0024859634989566
 135    -0.00027841874315292
 136    -0.001825820127564
 137    0.0023244180178933
 138    0.0051150591520759
 139    -0.00062751809173191
 140    -0.00012040774375497
 141       0.0014666319404
 142    -0.0016537604870825
 143    -0.000206933031923
 144    0.0027162756720714
 145    0.0019493716754254
 146    -0.00025302111227725
 147    0.0037467806940493
 148    0.00012252699210962
 149    0.00075481258554191
 150    -0.00013223579251394
 151    -0.00044705882330906
 152    0.00038080426664512
 153    -0.00021786290582964
 154    -0.0014198281627602
 155    0.0016443048954745
 156     0.004361119029758
 157    0.0003885205790365
 158    0.0012593557385708
 159    -0.00061380814032737
 160    0.0011145938272768
 161    0.0024235565565181
 162    -0.0010546182888254
 163    -0.0018355335746133
 164    0.0023433187043451
 165    -0.001975776592819
 166    0.00026845279994004
 167    -0.00017033813524945
 168    -0.00013328847153768
 169    0.00017411813724434
 170    -0.00074482787158758
 171    -0.0020524981869276
 172     0.003960660737308
 173     0.011193282047418
 174    -0.0046093671901369
 175    -0.0068135863110895
 176    -0.0011262364414422
 177    -0.0024418351463091
 178    -0.0047476925631806
 179    0.00056625064630201
 180     0.001064241047627
 181    0.00029106280089246
 182    0.00060636236833002
 183    -0.00048449235597312
 184    -0.0005749044931712
 185    -0.007298622093983
 186    -0.0071007956841904
 187    9.1975843227952e-05
 188    -0.00031802136050294
 189    -0.00035684852888782
 190    0.00041595638370932
 191    -0.0007376621662104
 192    -0.0001216224523298
 193    -6.9805286631752e-05
 194    0.00014091941454954
 195    0.0031955741836708
 196    -0.0056388570251685
 197    -0.00012410488506772
 198    0.00025451905689088
 199    -0.00027478397901126
 200    -0.0028997155050287
 201    0.0062078594592695
 202    0.0084008283331357
 203     0.011785208758844
 204    0.0013536970233032
 205    -0.0042371741368164
 206    0.0081932213123417
 207     0.004128858688129
 208    -0.0018916226464618
 209    -0.0005229741753256
 210    0.00039138468609667
 211    -0.00046547129457779
 212    0.00018554297443073
 213    -0.0011768333887703
 214    -0.0048169968315314
 215    -0.0010829782771478
 216    0.00040820517263309
 217    -0.00030827059121676
 218    -0.00037202113843646
 219    -0.0039923318893645
 220    -0.0038943084305642
 221    0.00018725449299294
 222    0.00014912802265424
 223    7.7634578039509e-05
 224    0.0042682541610917
 225    -0.0055181591214144
 226    4.0355494541032e-05
 227    -0.00026100114338373
 228    0.00038308742183561
 229    0.0008344650098352
 230    -0.00088742161062349
 231    -0.011974893062712
 232    -0.00089432243382421